 Entering Gaussian System, Link 0=g16
 Initial command:
 /opt/apps/g16-avx/g16/l1.exe "/tmp/Gau-42775.inp" -scrdir="/tmp/"
 Entering Link 1 = /opt/apps/g16-avx/g16/l1.exe PID=     42776.
  
 Copyright (c) 1988,1990,1992,1993,1995,1998,2003,2009,2016,
            Gaussian, Inc.  All Rights Reserved.
  
 This is part of the Gaussian(R) 16 program.  It is based on
 the Gaussian(R) 09 system (copyright 2009, Gaussian, Inc.),
 the Gaussian(R) 03 system (copyright 2003, Gaussian, Inc.),
 the Gaussian(R) 98 system (copyright 1998, Gaussian, Inc.),
 the Gaussian(R) 94 system (copyright 1995, Gaussian, Inc.),
 the Gaussian 92(TM) system (copyright 1992, Gaussian, Inc.),
 the Gaussian 90(TM) system (copyright 1990, Gaussian, Inc.),
 the Gaussian 88(TM) system (copyright 1988, Gaussian, Inc.),
 the Gaussian 86(TM) system (copyright 1986, Carnegie Mellon
 University), and the Gaussian 82(TM) system (copyright 1983,
 Carnegie Mellon University). Gaussian is a federally registered
 trademark of Gaussian, Inc.
  
 This software contains proprietary and confidential information,
 including trade secrets, belonging to Gaussian, Inc.
  
 This software is provided under written license and may be
 used, copied, transmitted, or stored only in accord with that
 written license.
  
 The following legend is applicable only to US Government
 contracts under FAR:
  
                    RESTRICTED RIGHTS LEGEND
  
 Use, reproduction and disclosure by the US Government is
 subject to restrictions as set forth in subparagraphs (a)
 and (c) of the Commercial Computer Software - Restricted
 Rights clause in FAR 52.227-19.
  
 Gaussian, Inc.
 340 Quinnipiac St., Bldg. 40, Wallingford CT 06492
  
  
 ---------------------------------------------------------------
 Warning -- This program may not be used in any manner that
 competes with the business of Gaussian, Inc. or will provide
 assistance to any competitor of Gaussian, Inc.  The licensee
 of this program is prohibited from giving any competitor of
 Gaussian, Inc. access to this program.  By using this program,
 the user acknowledges that Gaussian, Inc. is engaged in the
 business of creating and licensing software in the field of
 computational chemistry and represents and warrants to the
 licensee that it is not a competitor of Gaussian, Inc. and that
 it will not use this program in any manner prohibited above.
 ---------------------------------------------------------------
  

 Cite this work as:
 Gaussian 16, Revision A.03,
 M. J. Frisch, G. W. Trucks, H. B. Schlegel, G. E. Scuseria, 
 M. A. Robb, J. R. Cheeseman, G. Scalmani, V. Barone, 
 G. A. Petersson, H. Nakatsuji, X. Li, M. Caricato, A. V. Marenich, 
 J. Bloino, B. G. Janesko, R. Gomperts, B. Mennucci, H. P. Hratchian, 
 J. V. Ortiz, A. F. Izmaylov, J. L. Sonnenberg, D. Williams-Young, 
 F. Ding, F. Lipparini, F. Egidi, J. Goings, B. Peng, A. Petrone, 
 T. Henderson, D. Ranasinghe, V. G. Zakrzewski, J. Gao, N. Rega, 
 G. Zheng, W. Liang, M. Hada, M. Ehara, K. Toyota, R. Fukuda, 
 J. Hasegawa, M. Ishida, T. Nakajima, Y. Honda, O. Kitao, H. Nakai, 
 T. Vreven, K. Throssell, J. A. Montgomery, Jr., J. E. Peralta, 
 F. Ogliaro, M. J. Bearpark, J. J. Heyd, E. N. Brothers, K. N. Kudin, 
 V. N. Staroverov, T. A. Keith, R. Kobayashi, J. Normand, 
 K. Raghavachari, A. P. Rendell, J. C. Burant, S. S. Iyengar, 
 J. Tomasi, M. Cossi, J. M. Millam, M. Klene, C. Adamo, R. Cammi, 
 J. W. Ochterski, R. L. Martin, K. Morokuma, O. Farkas, 
 J. B. Foresman, and D. J. Fox, Gaussian, Inc., Wallingford CT, 2016.
 
 ******************************************
 Gaussian 16:  ES64L-G16RevA.03 25-Dec-2016
                15-Sep-2025 
 ******************************************
 %nprocshared=10
 Will use up to   10 processors via shared memory.
 %mem=20GB
 %chk=di1.chk
 -------------------------------------------------
 # opt freq cc-pvtz nosymm guess=mix em=gd3 um062x
 -------------------------------------------------
 1/18=20,19=15,26=3,38=1/1,3;
 2/9=110,12=2,15=1,17=6,18=5,40=1/2;
 3/5=16,6=1,11=2,25=1,30=1,71=1,74=-55,116=2,124=31/1,2,3;
 4/13=-1/1;
 5/5=2,38=5/2;
 6/7=2,8=2,9=2,10=2,28=1/1;
 7/30=1/1,2,3,16;
 1/18=20,19=15,26=3/3(2);
 2/9=110,15=1/2;
 99//99;
 2/9=110,15=1/2;
 3/5=16,6=1,11=2,25=1,30=1,71=1,74=-55,116=2,124=31/1,2,3;
 4/5=5,16=3,69=1/1;
 5/5=2,38=5/2;
 7/30=1/1,2,3,16;
 1/18=20,19=15,26=3/3(-5);
 2/9=110,15=1/2;
 6/7=2,8=2,9=2,10=2,19=2,28=1/1;
 99/9=1/99;
 -------------------
 Title Card Required
 -------------------
 Symbolic Z-matrix:
 Charge =  0 Multiplicity = 1
 C                    -1.64225  -0.78736   0.32863 
 H                    -1.44453  -1.82616   0.58804 
 H                    -0.85583  -0.42791  -0.33447 
 H                    -2.60008  -0.73422  -0.18949 
 C                    -2.59323  -0.52153   2.62225 
 H                    -2.13006  -1.28821   3.23425 
 C                    -3.87257  -0.22784   2.77745 
 H                    -4.37112   0.52079   2.17388 
 H                    -4.4757   -0.73673   3.51581 
 C                    -1.68164   0.071     1.58601 
 C                    -1.92325   1.56738   1.24739 
 H                    -2.75862   2.00022   1.79105 
 O                    -1.68321   2.93982   1.85776 
 O                     0.84421   0.34211   1.51743 
 O                    -0.37851   0.11816   2.1878 
 H                    -2.04376   1.7057    0.17146 
 

 GradGradGradGradGradGradGradGradGradGradGradGradGradGradGradGradGradGrad
 Berny optimization.
 Initialization pass.
                           ----------------------------
                           !    Initial Parameters    !
                           ! (Angstroms and Degrees)  !
 --------------------------                            --------------------------
 ! Name  Definition              Value          Derivative Info.                !
 --------------------------------------------------------------------------------
 ! R1    R(1,2)                  1.0888         estimate D2E/DX2                !
 ! R2    R(1,3)                  1.0897         estimate D2E/DX2                !
 ! R3    R(1,4)                  1.0903         estimate D2E/DX2                !
 ! R4    R(1,10)                 1.5229         estimate D2E/DX2                !
 ! R5    R(5,6)                  1.0848         estimate D2E/DX2                !
 ! R6    R(5,7)                  1.3218         estimate D2E/DX2                !
 ! R7    R(5,10)                 1.502          estimate D2E/DX2                !
 ! R8    R(7,8)                  1.0832         estimate D2E/DX2                !
 ! R9    R(7,9)                  1.0807         estimate D2E/DX2                !
 ! R10   R(10,11)                1.5531         estimate D2E/DX2                !
 ! R11   R(10,15)                1.4361         estimate D2E/DX2                !
 ! R12   R(11,12)                1.0866         estimate D2E/DX2                !
 ! R13   R(11,13)                1.5211         estimate D2E/DX2                !
 ! R14   R(11,16)                1.0915         estimate D2E/DX2                !
 ! R15   R(14,15)                1.4123         estimate D2E/DX2                !
 ! A1    A(2,1,3)              109.1867         estimate D2E/DX2                !
 ! A2    A(2,1,4)              108.6179         estimate D2E/DX2                !
 ! A3    A(2,1,10)             110.2259         estimate D2E/DX2                !
 ! A4    A(3,1,4)              109.1943         estimate D2E/DX2                !
 ! A5    A(3,1,10)             109.5829         estimate D2E/DX2                !
 ! A6    A(4,1,10)             110.0088         estimate D2E/DX2                !
 ! A7    A(6,5,7)              120.2677         estimate D2E/DX2                !
 ! A8    A(6,5,10)             114.1351         estimate D2E/DX2                !
 ! A9    A(7,5,10)             125.5072         estimate D2E/DX2                !
 ! A10   A(5,7,8)              122.2507         estimate D2E/DX2                !
 ! A11   A(5,7,9)              121.0492         estimate D2E/DX2                !
 ! A12   A(8,7,9)              116.6982         estimate D2E/DX2                !
 ! A13   A(1,10,5)             111.2827         estimate D2E/DX2                !
 ! A14   A(1,10,11)            111.5336         estimate D2E/DX2                !
 ! A15   A(1,10,15)            109.9384         estimate D2E/DX2                !
 ! A16   A(5,10,11)            115.8549         estimate D2E/DX2                !
 ! A17   A(5,10,15)            105.9365         estimate D2E/DX2                !
 ! A18   A(11,10,15)           101.588          estimate D2E/DX2                !
 ! A19   A(10,11,12)           113.2221         estimate D2E/DX2                !
 ! A20   A(10,11,13)           139.2236         estimate D2E/DX2                !
 ! A21   A(10,11,16)           110.744          estimate D2E/DX2                !
 ! A22   A(12,11,13)            63.9696         estimate D2E/DX2                !
 ! A23   A(12,11,16)           110.9679         estimate D2E/DX2                !
 ! A24   A(13,11,16)           107.3761         estimate D2E/DX2                !
 ! A25   A(10,15,14)           126.2908         estimate D2E/DX2                !
 ! D1    D(2,1,10,5)           -50.5098         estimate D2E/DX2                !
 ! D2    D(2,1,10,11)          178.4313         estimate D2E/DX2                !
 ! D3    D(2,1,10,15)           66.5398         estimate D2E/DX2                !
 ! D4    D(3,1,10,5)          -170.6966         estimate D2E/DX2                !
 ! D5    D(3,1,10,11)           58.2446         estimate D2E/DX2                !
 ! D6    D(3,1,10,15)          -53.6469         estimate D2E/DX2                !
 ! D7    D(4,1,10,5)            69.2428         estimate D2E/DX2                !
 ! D8    D(4,1,10,11)          -61.816          estimate D2E/DX2                !
 ! D9    D(4,1,10,15)         -173.7076         estimate D2E/DX2                !
 ! D10   D(6,5,7,8)           -179.0472         estimate D2E/DX2                !
 ! D11   D(6,5,7,9)              0.4295         estimate D2E/DX2                !
 ! D12   D(10,5,7,8)            -2.7051         estimate D2E/DX2                !
 ! D13   D(10,5,7,9)           176.7716         estimate D2E/DX2                !
 ! D14   D(6,5,10,1)            83.7884         estimate D2E/DX2                !
 ! D15   D(6,5,10,11)         -147.4196         estimate D2E/DX2                !
 ! D16   D(6,5,10,15)          -35.6723         estimate D2E/DX2                !
 ! D17   D(7,5,10,1)           -92.75           estimate D2E/DX2                !
 ! D18   D(7,5,10,11)           36.0421         estimate D2E/DX2                !
 ! D19   D(7,5,10,15)          147.7894         estimate D2E/DX2                !
 ! D20   D(1,10,11,12)         126.8566         estimate D2E/DX2                !
 ! D21   D(1,10,11,13)        -156.6579         estimate D2E/DX2                !
 ! D22   D(1,10,11,16)           1.4841         estimate D2E/DX2                !
 ! D23   D(5,10,11,12)          -1.8128         estimate D2E/DX2                !
 ! D24   D(5,10,11,13)          74.6727         estimate D2E/DX2                !
 ! D25   D(5,10,11,16)        -127.1853         estimate D2E/DX2                !
 ! D26   D(15,10,11,12)       -116.0698         estimate D2E/DX2                !
 ! D27   D(15,10,11,13)        -39.5842         estimate D2E/DX2                !
 ! D28   D(15,10,11,16)        118.5577         estimate D2E/DX2                !
 ! D29   D(1,10,15,14)          45.9575         estimate D2E/DX2                !
 ! D30   D(5,10,15,14)         166.2974         estimate D2E/DX2                !
 ! D31   D(11,10,15,14)        -72.2689         estimate D2E/DX2                !
 --------------------------------------------------------------------------------
 Trust Radius=3.00D-01 FncErr=1.00D-07 GrdErr=1.00D-06 EigMax=2.50D+02 EigMin=1.00D-04
 Number of steps in this run=     81 maximum allowed number of steps=    100.
 GradGradGradGradGradGradGradGradGradGradGradGradGradGradGradGradGradGrad

                          Input orientation:                          
 ---------------------------------------------------------------------
 Center     Atomic      Atomic             Coordinates (Angstroms)
 Number     Number       Type             X           Y           Z
 ---------------------------------------------------------------------
      1          6           0       -1.642253   -0.787358    0.328630
      2          1           0       -1.444530   -1.826161    0.588044
      3          1           0       -0.855835   -0.427913   -0.334469
      4          1           0       -2.600083   -0.734223   -0.189489
      5          6           0       -2.593229   -0.521534    2.622252
      6          1           0       -2.130056   -1.288213    3.234253
      7          6           0       -3.872574   -0.227845    2.777448
      8          1           0       -4.371115    0.520792    2.173877
      9          1           0       -4.475700   -0.736728    3.515806
     10          6           0       -1.681639    0.070997    1.586007
     11          6           0       -1.923253    1.567383    1.247390
     12          1           0       -2.758618    2.000225    1.791050
     13          8           0       -1.683208    2.939816    1.857760
     14          8           0        0.844209    0.342109    1.517429
     15          8           0       -0.378511    0.118165    2.187798
     16          1           0       -2.043756    1.705699    0.171461
 ---------------------------------------------------------------------
                    Distance matrix (angstroms):
                    1          2          3          4          5
     1  C    0.000000
     2  H    1.088807   0.000000
     3  H    1.089659   1.775582   0.000000
     4  H    1.090279   1.769799   1.776865   0.000000
     5  C    2.497142   2.675736   3.430671   2.819782   0.000000
     6  H    2.988553   2.785993   3.885811   3.499977   1.084837
     7  C    3.359180   3.639162   4.338752   3.267777   1.321765
     8  H    3.544416   4.072832   4.421430   3.208912   2.109114
     9  H    4.264865   4.352774   5.293714   4.152969   2.094862
    10  C    1.522932   2.156701   2.149207   2.155065   1.501963
    11  C    2.543204   3.489993   2.760953   2.796446   2.588955
    12  H    3.339994   4.220815   3.746233   3.380070   2.660361
    13  O    4.028863   4.937984   4.102683   4.304701   3.659717
    14  O    2.978496   3.286865   2.629184   3.991893   3.712478
    15  O    2.423535   2.734230   2.624475   3.363545   2.345834
    16  H    2.530068   3.606474   2.493877   2.528439   3.356913
                    6          7          8          9         10
     6  H    0.000000
     7  C    2.090316   0.000000
     8  H    3.069079   1.083189   0.000000
     9  H    2.425996   1.080692   1.842028   0.000000
    10  C    2.182944   2.511779   2.789479   3.490462   0.000000
    11  C    3.484941   3.060028   2.818823   4.119420   1.553128
    12  H    3.645785   2.679212   2.221582   3.662522   2.218974
    13  O    4.468851   3.958943   3.629939   4.905518   2.881661
    14  O    3.801537   4.915337   5.259512   5.784361   2.541282
    15  O    2.478078   3.560321   4.012878   4.391060   1.436147
    16  H    4.283883   3.724827   3.290939   4.802546   2.191876
                   11         12         13         14         15
    11  C    0.000000
    12  H    1.086625   0.000000
    13  O    1.521100   1.429611   0.000000
    14  O    3.038595   3.975497   3.640294   0.000000
    15  O    2.317504   3.060141   3.126159   1.412300   0.000000
    16  H    1.091456   1.794670   2.120529   3.465740   3.059235
                   16
    16  H    0.000000
 Symmetry turned off by external request.
 Stoichiometry    C5H8O3
 Framework group  C1[X(C5H8O3)]
 Deg. of freedom    42
 Full point group                 C1      NOp   1
 Rotational constants (GHZ):           2.2472337           1.7523373           1.2806813
 Standard basis: CC-pVTZ (5D, 7F)
   352 basis functions,   552 primitive gaussians,   400 cartesian basis functions
    31 alpha electrons       31 beta electrons
       nuclear repulsion energy       374.3587351505 Hartrees.
 NAtoms=   16 NActive=   16 NUniq=   16 SFac= 1.00D+00 NAtFMM=   60 NAOKFM=F Big=F
 Integral buffers will be    131072 words long.
 Raffenetti 2 integral format.
 Two-electron integral symmetry is turned off.
 Nuclear repulsion after empirical dispersion term =      374.3583249038 Hartrees.
 One-electron integrals computed using PRISM.
 NBasis=   352 RedAO= T EigKep=  2.67D-04  NBF=   352
 NBsUse=   352 1.00D-06 EigRej= -1.00D+00 NBFU=   352
 ExpMin= 1.03D-01 ExpMax= 1.53D+04 ExpMxC= 5.22D+02 IAcc=3 IRadAn=         5 AccDes= 0.00D+00
 Harris functional with IExCor= 1009 and IRadAn=       5 diagonalized for initial guess.
 HarFok:  IExCor= 1009 AccDes= 0.00D+00 IRadAn=         5 IDoV= 1 UseB2=F ITyADJ=14
 ICtDFT=  3500011 ScaDFX=  1.000000  1.000000  1.000000  1.000000
 FoFCou: FMM=F IPFlag=           0 FMFlag=      100000 FMFlg1=           0
         NFxFlg=           0 DoJE=T BraDBF=F KetDBF=T FulRan=T
         wScrn=  0.000000 ICntrl=       500 IOpCl=  0 I1Cent=   200000004 NGrid=           0
         NMat0=    1 NMatS0=      1 NMatT0=    0 NMatD0=    1 NMtDS0=    0 NMtDT0=    0
 Symmetry not used in FoFCou.
 Mixing orbitals, IMix= 1 IMixAn=  0 NRI=1 NE=   31 Coef=  7.07106781D-01  7.07106781D-01
 Mixing orbitals, IMix= 1 IMixAn=  0 NRI=1 NE=   31 Coef= -7.07106781D-01  7.07106781D-01
 Initial guess <Sx>= 0.0000 <Sy>= 0.0000 <Sz>= 0.0000 <S**2>= 1.0000 S= 0.6180
 Requested convergence on RMS density matrix=1.00D-08 within 128 cycles.
 Requested convergence on MAX density matrix=1.00D-06.
 Requested convergence on             energy=1.00D-06.
 No special actions if energy rises.
 Integral accuracy reduced to 1.0D-05 until final iterations.
 Initial convergence to 1.0D-05 achieved.  Increase integral accuracy.
 SCF Done:  E(UM062X) =  -420.660909607     A.U. after   31 cycles
            NFock= 31  Conv=0.45D-08     -V/T= 2.0062
 <Sx>= 0.0000 <Sy>= 0.0000 <Sz>= 0.0000 <S**2>= 1.0023 S= 0.6191
 <L.S>=  0.00000000000    
 Annihilation of the first spin contaminant:
 S**2 before annihilation     1.0023,   after     0.0857

 **********************************************************************

            Population analysis using the SCF density.

 **********************************************************************

 Alpha  occ. eigenvalues --  -19.73891 -19.72384 -19.66570 -10.65477 -10.62322
 Alpha  occ. eigenvalues --  -10.57588 -10.56429 -10.56150  -1.28224  -1.08352
 Alpha  occ. eigenvalues --   -1.04494  -0.92133  -0.86326  -0.78234  -0.72911
 Alpha  occ. eigenvalues --   -0.65197  -0.60428  -0.59438  -0.58366  -0.54453
 Alpha  occ. eigenvalues --   -0.52813  -0.51715  -0.48783  -0.48206  -0.47117
 Alpha  occ. eigenvalues --   -0.44020  -0.43505  -0.39158  -0.38594  -0.35900
 Alpha  occ. eigenvalues --   -0.34754
 Alpha virt. eigenvalues --   -0.06801   0.00615   0.04423   0.06103   0.08493
 Alpha virt. eigenvalues --    0.08974   0.09782   0.12120   0.12857   0.13885
 Alpha virt. eigenvalues --    0.14943   0.17890   0.18913   0.22870   0.23150
 Alpha virt. eigenvalues --    0.25172   0.26713   0.27810   0.30463   0.32114
 Alpha virt. eigenvalues --    0.34456   0.36474   0.36926   0.38674   0.40143
 Alpha virt. eigenvalues --    0.41569   0.42251   0.44257   0.45014   0.46041
 Alpha virt. eigenvalues --    0.46551   0.46997   0.47551   0.48598   0.49517
 Alpha virt. eigenvalues --    0.50277   0.51919   0.52106   0.54190   0.55523
 Alpha virt. eigenvalues --    0.56309   0.58419   0.60632   0.61264   0.64267
 Alpha virt. eigenvalues --    0.66694   0.68371   0.70461   0.71853   0.72987
 Alpha virt. eigenvalues --    0.73405   0.76835   0.77630   0.79125   0.80935
 Alpha virt. eigenvalues --    0.83464   0.84367   0.87630   0.88447   0.90849
 Alpha virt. eigenvalues --    0.93163   0.93392   0.96172   0.97532   0.98806
 Alpha virt. eigenvalues --    0.99878   1.00744   1.02491   1.02824   1.05959
 Alpha virt. eigenvalues --    1.07995   1.09479   1.10883   1.13711   1.15623
 Alpha virt. eigenvalues --    1.18150   1.18365   1.20244   1.21553   1.22900
 Alpha virt. eigenvalues --    1.23930   1.25036   1.26407   1.30644   1.31154
 Alpha virt. eigenvalues --    1.32143   1.33474   1.34366   1.35367   1.38896
 Alpha virt. eigenvalues --    1.40692   1.41804   1.42928   1.44104   1.45612
 Alpha virt. eigenvalues --    1.48939   1.50158   1.50709   1.53615   1.54048
 Alpha virt. eigenvalues --    1.56975   1.59166   1.60263   1.62380   1.63200
 Alpha virt. eigenvalues --    1.64893   1.66563   1.72399   1.76561   1.77720
 Alpha virt. eigenvalues --    1.85477   1.87292   1.91798   1.93978   1.98791
 Alpha virt. eigenvalues --    2.02445   2.09511   2.12323   2.14113   2.15623
 Alpha virt. eigenvalues --    2.17475   2.21128   2.26746   2.29472   2.31612
 Alpha virt. eigenvalues --    2.34130   2.35424   2.37101   2.40224   2.42237
 Alpha virt. eigenvalues --    2.43814   2.45107   2.48455   2.50745   2.53021
 Alpha virt. eigenvalues --    2.54130   2.56401   2.62119   2.64786   2.67164
 Alpha virt. eigenvalues --    2.69924   2.74073   2.75316   2.76788   2.78990
 Alpha virt. eigenvalues --    2.80253   2.80582   2.82649   2.85549   2.86380
 Alpha virt. eigenvalues --    2.87102   2.88860   2.89967   2.92004   2.92604
 Alpha virt. eigenvalues --    2.93756   2.94791   2.96945   2.98959   2.99802
 Alpha virt. eigenvalues --    3.01370   3.02777   3.03591   3.06559   3.07291
 Alpha virt. eigenvalues --    3.08156   3.09183   3.11730   3.12827   3.14130
 Alpha virt. eigenvalues --    3.15650   3.17370   3.19237   3.20566   3.23336
 Alpha virt. eigenvalues --    3.26081   3.28885   3.30701   3.31594   3.32265
 Alpha virt. eigenvalues --    3.35741   3.37947   3.39384   3.40772   3.41665
 Alpha virt. eigenvalues --    3.44697   3.46770   3.47252   3.49482   3.51256
 Alpha virt. eigenvalues --    3.53114   3.53743   3.56244   3.60371   3.60977
 Alpha virt. eigenvalues --    3.64903   3.65524   3.67910   3.69294   3.71013
 Alpha virt. eigenvalues --    3.72346   3.75273   3.77033   3.78707   3.79836
 Alpha virt. eigenvalues --    3.81086   3.82208   3.84089   3.85729   3.87979
 Alpha virt. eigenvalues --    3.89945   3.90983   3.93505   3.96220   3.97181
 Alpha virt. eigenvalues --    3.97868   3.99388   4.00732   4.01945   4.03454
 Alpha virt. eigenvalues --    4.05741   4.06578   4.07550   4.08694   4.12034
 Alpha virt. eigenvalues --    4.14149   4.19085   4.20327   4.22494   4.26321
 Alpha virt. eigenvalues --    4.28598   4.29165   4.31219   4.34932   4.36518
 Alpha virt. eigenvalues --    4.41017   4.44110   4.47209   4.49198   4.51430
 Alpha virt. eigenvalues --    4.56382   4.59057   4.62121   4.67248   4.68717
 Alpha virt. eigenvalues --    4.72264   4.75137   4.75476   4.77932   4.79124
 Alpha virt. eigenvalues --    4.83762   4.84833   4.85606   4.88376   4.91409
 Alpha virt. eigenvalues --    4.93759   4.95849   4.99114   5.00975   5.03687
 Alpha virt. eigenvalues --    5.05157   5.07157   5.08072   5.09802   5.11803
 Alpha virt. eigenvalues --    5.13142   5.13788   5.14634   5.15318   5.17067
 Alpha virt. eigenvalues --    5.17084   5.20793   5.24485   5.26906   5.28573
 Alpha virt. eigenvalues --    5.28811   5.33241   5.36344   5.38593   5.40881
 Alpha virt. eigenvalues --    5.41614   5.45753   5.53305   5.59933   5.67005
 Alpha virt. eigenvalues --    5.72074   5.75794   5.79246   5.80411   5.81788
 Alpha virt. eigenvalues --    5.86269   5.94834   5.95432   6.01280   6.10985
 Alpha virt. eigenvalues --    6.11177   6.17103   6.23057   6.27399   6.36589
 Alpha virt. eigenvalues --    6.39457   6.40661   6.44541   6.56581   6.71582
 Alpha virt. eigenvalues --    6.75303   6.75966   6.97993   7.01229   7.07987
 Alpha virt. eigenvalues --    7.12433   7.18499   7.30106   9.15844   9.87020
 Alpha virt. eigenvalues --   10.22151  11.08578  11.41036  12.37171  13.75294
 Alpha virt. eigenvalues --   14.30367
  Beta  occ. eigenvalues --  -19.73181 -19.70891 -19.68078 -10.65497 -10.62458
  Beta  occ. eigenvalues --  -10.57597 -10.56436 -10.56141  -1.25127  -1.13426
  Beta  occ. eigenvalues --   -1.01336  -0.91026  -0.86166  -0.79582  -0.72789
  Beta  occ. eigenvalues --   -0.65511  -0.60706  -0.59732  -0.56141  -0.54963
  Beta  occ. eigenvalues --   -0.52726  -0.50416  -0.48725  -0.47818  -0.46764
  Beta  occ. eigenvalues --   -0.43707  -0.43641  -0.38744  -0.36257  -0.35503
  Beta  occ. eigenvalues --   -0.34429
  Beta virt. eigenvalues --   -0.08354   0.00773   0.03480   0.06080   0.08695
  Beta virt. eigenvalues --    0.09190   0.10619   0.12018   0.12713   0.14120
  Beta virt. eigenvalues --    0.14908   0.17643   0.18654   0.22606   0.23099
  Beta virt. eigenvalues --    0.25355   0.26482   0.27703   0.30250   0.31906
  Beta virt. eigenvalues --    0.34375   0.36229   0.36771   0.38491   0.40031
  Beta virt. eigenvalues --    0.41285   0.42111   0.44032   0.44891   0.45459
  Beta virt. eigenvalues --    0.46447   0.47034   0.47264   0.48515   0.49449
  Beta virt. eigenvalues --    0.50194   0.51820   0.51880   0.54197   0.55559
  Beta virt. eigenvalues --    0.56404   0.58565   0.60857   0.61287   0.64274
  Beta virt. eigenvalues --    0.66802   0.68450   0.70159   0.71829   0.73265
  Beta virt. eigenvalues --    0.74331   0.76902   0.77820   0.79337   0.79989
  Beta virt. eigenvalues --    0.83328   0.84376   0.87561   0.88428   0.90783
  Beta virt. eigenvalues --    0.92902   0.93604   0.96127   0.97387   0.98772
  Beta virt. eigenvalues --    0.99654   1.00653   1.02411   1.02581   1.05883
  Beta virt. eigenvalues --    1.07942   1.09497   1.10838   1.13414   1.15414
  Beta virt. eigenvalues --    1.17721   1.18389   1.19951   1.21582   1.22975
  Beta virt. eigenvalues --    1.23838   1.24772   1.26421   1.30454   1.31138
  Beta virt. eigenvalues --    1.32230   1.33533   1.34356   1.35140   1.38852
  Beta virt. eigenvalues --    1.40904   1.42167   1.43344   1.44887   1.45582
  Beta virt. eigenvalues --    1.49166   1.50332   1.50686   1.53544   1.54396
  Beta virt. eigenvalues --    1.56684   1.60288   1.60572   1.61553   1.63316
  Beta virt. eigenvalues --    1.63796   1.66446   1.72482   1.75393   1.77927
  Beta virt. eigenvalues --    1.84926   1.87436   1.89947   1.93940   1.99172
  Beta virt. eigenvalues --    2.02567   2.09396   2.11096   2.14048   2.15720
  Beta virt. eigenvalues --    2.18021   2.21224   2.26689   2.29496   2.31658
  Beta virt. eigenvalues --    2.34196   2.35338   2.36986   2.40154   2.42250
  Beta virt. eigenvalues --    2.43631   2.44675   2.48328   2.50693   2.52814
  Beta virt. eigenvalues --    2.53737   2.56279   2.61946   2.64696   2.66996
  Beta virt. eigenvalues --    2.69473   2.73840   2.75086   2.76460   2.78680
  Beta virt. eigenvalues --    2.80052   2.80591   2.82673   2.85391   2.85861
  Beta virt. eigenvalues --    2.86648   2.88682   2.89491   2.91684   2.92270
  Beta virt. eigenvalues --    2.93403   2.94585   2.96837   2.98712   2.99697
  Beta virt. eigenvalues --    3.01170   3.02524   3.03166   3.06339   3.07093
  Beta virt. eigenvalues --    3.08124   3.09141   3.11651   3.12405   3.14054
  Beta virt. eigenvalues --    3.15393   3.17126   3.18993   3.20335   3.23074
  Beta virt. eigenvalues --    3.26012   3.28790   3.30293   3.31483   3.32230
  Beta virt. eigenvalues --    3.35660   3.37660   3.39410   3.40748   3.41526
  Beta virt. eigenvalues --    3.44204   3.45852   3.47325   3.49278   3.50897
  Beta virt. eigenvalues --    3.52782   3.53699   3.56193   3.60023   3.60899
  Beta virt. eigenvalues --    3.64750   3.65593   3.68062   3.69740   3.71741
  Beta virt. eigenvalues --    3.74277   3.76997   3.77732   3.79611   3.79748
  Beta virt. eigenvalues --    3.81638   3.82363   3.84061   3.85732   3.88039
  Beta virt. eigenvalues --    3.89786   3.91087   3.93500   3.96124   3.96911
  Beta virt. eigenvalues --    3.97713   3.99223   4.00377   4.01988   4.03433
  Beta virt. eigenvalues --    4.05436   4.06583   4.07329   4.08623   4.11709
  Beta virt. eigenvalues --    4.13871   4.18300   4.20446   4.22503   4.25994
  Beta virt. eigenvalues --    4.28640   4.29042   4.31355   4.34780   4.36587
  Beta virt. eigenvalues --    4.41077   4.44021   4.46828   4.48989   4.51456
  Beta virt. eigenvalues --    4.56543   4.59251   4.62022   4.67231   4.68805
  Beta virt. eigenvalues --    4.72243   4.75253   4.75904   4.77451   4.79154
  Beta virt. eigenvalues --    4.84262   4.85412   4.85698   4.88691   4.91058
  Beta virt. eigenvalues --    4.93254   4.95528   4.99158   5.01644   5.03988
  Beta virt. eigenvalues --    5.04919   5.06517   5.07394   5.09340   5.11566
  Beta virt. eigenvalues --    5.14026   5.14390   5.14879   5.16491   5.17292
  Beta virt. eigenvalues --    5.17511   5.21004   5.24064   5.26730   5.28445
  Beta virt. eigenvalues --    5.28620   5.32513   5.36550   5.36692   5.41580
  Beta virt. eigenvalues --    5.41937   5.43977   5.53027   5.58105   5.66962
  Beta virt. eigenvalues --    5.72106   5.75326   5.79204   5.80595   5.81662
  Beta virt. eigenvalues --    5.85696   5.91630   5.95959   6.03971   6.08060
  Beta virt. eigenvalues --    6.11396   6.19035   6.28959   6.32717   6.32974
  Beta virt. eigenvalues --    6.36144   6.40336   6.42776   6.57659   6.73350
  Beta virt. eigenvalues --    6.74740   6.75695   6.96772   6.98494   7.01510
  Beta virt. eigenvalues --    7.12003   7.18312   7.32568   9.17891   9.85379
  Beta virt. eigenvalues --   10.22251  11.08747  11.40977  12.37187  13.75260
  Beta virt. eigenvalues --   14.30341
          Condensed to atoms (all electrons):
               1          2          3          4          5          6
     1  C    5.035733   0.390001   0.393218   0.392872  -0.058802  -0.001152
     2  H    0.390001   0.533200  -0.024078  -0.026677  -0.004971   0.000248
     3  H    0.393218  -0.024078   0.517550  -0.030270   0.011251  -0.000168
     4  H    0.392872  -0.026677  -0.030270   0.561236  -0.008723   0.000805
     5  C   -0.058802  -0.004971   0.011251  -0.008723   5.066911   0.388143
     6  H   -0.001152   0.000248  -0.000168   0.000805   0.388143   0.497659
     7  C    0.002116   0.000195   0.000421   0.001223   0.546738  -0.031822
     8  H   -0.000454   0.000000  -0.000015   0.000273  -0.073744   0.004909
     9  H   -0.000276  -0.000097   0.000026   0.000004  -0.044789  -0.008813
    10  C    0.291941  -0.025029  -0.024363  -0.032797   0.326948  -0.034913
    11  C   -0.031394   0.006586  -0.010192   0.001889  -0.049499   0.005307
    12  H    0.001295  -0.000118  -0.000135  -0.000261  -0.010526  -0.000068
    13  O    0.000811  -0.000065   0.000093  -0.000003   0.003669  -0.000083
    14  O   -0.000456  -0.000162   0.012297   0.000356   0.003102  -0.000339
    15  O   -0.036574   0.001157  -0.008446   0.003651  -0.028510   0.006241
    16  H    0.010784   0.000348  -0.000982  -0.002797   0.006102  -0.000513
               7          8          9         10         11         12
     1  C    0.002116  -0.000454  -0.000276   0.291941  -0.031394   0.001295
     2  H    0.000195   0.000000  -0.000097  -0.025029   0.006586  -0.000118
     3  H    0.000421  -0.000015   0.000026  -0.024363  -0.010192  -0.000135
     4  H    0.001223   0.000273   0.000004  -0.032797   0.001889  -0.000261
     5  C    0.546738  -0.073744  -0.044789   0.326948  -0.049499  -0.010526
     6  H   -0.031822   0.004909  -0.008813  -0.034913   0.005307  -0.000068
     7  C    5.034001   0.419240   0.414769  -0.064291  -0.005147   0.001337
     8  H    0.419240   0.539402  -0.031872  -0.000867   0.004121   0.001626
     9  H    0.414769  -0.031872   0.536528   0.005118   0.000069   0.000145
    10  C   -0.064291  -0.000867   0.005118   5.261234   0.136391  -0.024525
    11  C   -0.005147   0.004121   0.000069   0.136391   5.054382   0.332603
    12  H    0.001337   0.001626   0.000145  -0.024525   0.332603   0.517852
    13  O   -0.000922  -0.001182  -0.000018  -0.017963   0.276877   0.005055
    14  O   -0.000078  -0.000005   0.000003  -0.028864  -0.000404   0.000378
    15  O    0.002145   0.000129  -0.000049   0.202720  -0.045238   0.004272
    16  H   -0.002136  -0.001290   0.000014  -0.107646   0.420430  -0.020286
              13         14         15         16
     1  C    0.000811  -0.000456  -0.036574   0.010784
     2  H   -0.000065  -0.000162   0.001157   0.000348
     3  H    0.000093   0.012297  -0.008446  -0.000982
     4  H   -0.000003   0.000356   0.003651  -0.002797
     5  C    0.003669   0.003102  -0.028510   0.006102
     6  H   -0.000083  -0.000339   0.006241  -0.000513
     7  C   -0.000922  -0.000078   0.002145  -0.002136
     8  H   -0.001182  -0.000005   0.000129  -0.001290
     9  H   -0.000018   0.000003  -0.000049   0.000014
    10  C   -0.017963  -0.028864   0.202720  -0.107646
    11  C    0.276877  -0.000404  -0.045238   0.420430
    12  H    0.005055   0.000378   0.004272  -0.020286
    13  O    8.021626   0.000250  -0.002220  -0.042554
    14  O    0.000250   8.020568   0.124057  -0.001000
    15  O   -0.002220   0.124057   7.881098   0.004991
    16  H   -0.042554  -0.001000   0.004991   0.600754
          Atomic-Atomic Spin Densities.
               1          2          3          4          5          6
     1  C    0.018934  -0.002940   0.002227  -0.000860   0.003930  -0.001452
     2  H   -0.002940   0.001494   0.000152   0.000141  -0.000506   0.000052
     3  H    0.002227   0.000152   0.000323  -0.000099  -0.000618  -0.000026
     4  H   -0.000860   0.000141  -0.000099  -0.002086   0.001023  -0.000064
     5  C    0.003930  -0.000506  -0.000618   0.001023  -0.021174  -0.000281
     6  H   -0.001452   0.000052  -0.000026  -0.000064  -0.000281  -0.000979
     7  C   -0.002288   0.000493  -0.000084   0.000002  -0.000441   0.001254
     8  H   -0.000076   0.000069  -0.000011   0.000054   0.000150   0.000137
     9  H    0.000022   0.000014  -0.000000  -0.000001   0.000786   0.000008
    10  C   -0.004120   0.001157  -0.001003   0.001991   0.001276  -0.000291
    11  C   -0.004818   0.000334   0.000280  -0.000247   0.015658   0.000416
    12  H    0.000770   0.000033   0.000033  -0.000121   0.005297   0.000067
    13  O   -0.000050  -0.000020  -0.000002   0.000021  -0.001703  -0.000039
    14  O    0.001848  -0.000526  -0.001685  -0.000083   0.000066  -0.000201
    15  O   -0.011145   0.001237   0.000821  -0.000189  -0.000261   0.000690
    16  H    0.003422  -0.000106   0.000224   0.000326  -0.001015  -0.000030
               7          8          9         10         11         12
     1  C   -0.002288  -0.000076   0.000022  -0.004120  -0.004818   0.000770
     2  H    0.000493   0.000069   0.000014   0.001157   0.000334   0.000033
     3  H   -0.000084  -0.000011  -0.000000  -0.001003   0.000280   0.000033
     4  H    0.000002   0.000054  -0.000001   0.001991  -0.000247  -0.000121
     5  C   -0.000441   0.000150   0.000786   0.001276   0.015658   0.005297
     6  H    0.001254   0.000137   0.000008  -0.000291   0.000416   0.000067
     7  C   -0.009960   0.001921   0.000002   0.003780  -0.001909  -0.003212
     8  H    0.001921   0.006373  -0.000872   0.001119  -0.004382  -0.003470
     9  H    0.000002  -0.000872  -0.000335   0.000047  -0.000325  -0.000128
    10  C    0.003780   0.001119   0.000047  -0.023698  -0.008080   0.009551
    11  C   -0.001909  -0.004382  -0.000325  -0.008080  -0.202263  -0.081594
    12  H   -0.003212  -0.003470  -0.000128   0.009551  -0.081594   0.009867
    13  O    0.000192   0.000934   0.000026  -0.009525   0.125197   0.043028
    14  O   -0.000006  -0.000001   0.000000  -0.003814   0.005422  -0.000141
    15  O   -0.000595  -0.000118  -0.000006   0.027013  -0.015942  -0.000107
    16  H   -0.000034   0.000125   0.000004  -0.014212   0.007747   0.004486
              13         14         15         16
     1  C   -0.000050   0.001848  -0.011145   0.003422
     2  H   -0.000020  -0.000526   0.001237  -0.000106
     3  H   -0.000002  -0.001685   0.000821   0.000224
     4  H    0.000021  -0.000083  -0.000189   0.000326
     5  C   -0.001703   0.000066  -0.000261  -0.001015
     6  H   -0.000039  -0.000201   0.000690  -0.000030
     7  C    0.000192  -0.000006  -0.000595  -0.000034
     8  H    0.000934  -0.000001  -0.000118   0.000125
     9  H    0.000026   0.000000  -0.000006   0.000004
    10  C   -0.009525  -0.003814   0.027013  -0.014212
    11  C    0.125197   0.005422  -0.015942   0.007747
    12  H    0.043028  -0.000141  -0.000107   0.004486
    13  O   -0.941003  -0.000164   0.000505  -0.007539
    14  O   -0.000164   0.851832  -0.108002  -0.000354
    15  O    0.000505  -0.108002   0.340481   0.001068
    16  H   -0.007539  -0.000354   0.001068   0.018760
 Mulliken charges and spin densities:
               1          2
     1  C   -0.389662   0.003403
     2  H    0.149461   0.001079
     3  H    0.163791   0.000531
     4  H    0.139217  -0.000190
     5  C   -0.073300   0.002187
     6  H    0.174559  -0.000738
     7  C   -0.317788  -0.010885
     8  H    0.139728   0.001954
     9  H    0.129237  -0.000758
    10  C    0.136904  -0.018808
    11  C   -0.096780  -0.164504
    12  H    0.191356  -0.015642
    13  O   -0.243373  -0.790143
    14  O   -0.129705   0.744193
    15  O   -0.109427   0.235450
    16  H    0.135782   0.012871
 Sum of Mulliken charges =  -0.00000  -0.00000
 Mulliken charges and spin densities with hydrogens summed into heavy atoms:
               1          2
     1  C    0.062808   0.004823
     5  C    0.101259   0.001449
     7  C   -0.048824  -0.009689
    10  C    0.136904  -0.018808
    11  C    0.230357  -0.167275
    13  O   -0.243373  -0.790143
    14  O   -0.129705   0.744193
    15  O   -0.109427   0.235450
 Electronic spatial extent (au):  <R**2>=           2294.1069
 Charge=             -0.0000 electrons
 Dipole moment (field-independent basis, Debye):
    X=             -3.3599    Y=             -2.6993    Z=             -1.3053  Tot=              4.5032
 Quadrupole moment (field-independent basis, Debye-Ang):
   XX=            -38.4994   YY=            -54.4568   ZZ=            -50.6856
   XY=              2.5480   XZ=             -5.6377   YZ=             -7.0977
 Traceless Quadrupole moment (field-independent basis, Debye-Ang):
   XX=              9.3812   YY=             -6.5762   ZZ=             -2.8050
   XY=              2.5480   XZ=             -5.6377   YZ=             -7.0977
 Octapole moment (field-independent basis, Debye-Ang**2):
  XXX=            208.7086  YYY=            -84.7833  ZZZ=           -252.8012  XYY=             93.5405
  XXY=            -17.9745  XXZ=            -59.8560  XZZ=             66.9726  YZZ=            -38.7043
  YYZ=            -95.5505  XYZ=             10.3135
 Hexadecapole moment (field-independent basis, Debye-Ang**3):
 XXXX=          -1247.8804 YYYY=           -587.6599 ZZZZ=          -1120.6374 XXXY=             55.3836
 XXXZ=            375.2956 YYYX=            118.3098 YYYZ=           -149.8126 ZZZX=            440.4210
 ZZZY=           -158.4876 XXYY=           -332.5254 XXZZ=           -347.8090 YYZZ=           -291.8655
 XXYZ=            -47.7147 YYXZ=            181.8038 ZZXY=             63.1211
 N-N= 3.743583249038D+02 E-N=-1.732873999430D+03  KE= 4.180714882802D+02
                          Isotropic Fermi Contact Couplings
        Atom                 a.u.       MegaHertz       Gauss      10(-4) cm-1
     1  C(13)              0.00292       1.63912       0.58488       0.54675
     2  H(1)              -0.00026      -0.57393      -0.20479      -0.19144
     3  H(1)              -0.00040      -0.88431      -0.31554      -0.29497
     4  H(1)              -0.00004      -0.08997      -0.03210      -0.03001
     5  C(13)             -0.00575      -3.23477      -1.15425      -1.07900
     6  H(1)              -0.00003      -0.06385      -0.02278      -0.02130
     7  C(13)             -0.00399      -2.24270      -0.80025      -0.74808
     8  H(1)              -0.00016      -0.35881      -0.12803      -0.11969
     9  H(1)              -0.00020      -0.45394      -0.16198      -0.15142
    10  C(13)             -0.01351      -7.59303      -2.70938      -2.53276
    11  C(13)             -0.00247      -1.39032      -0.49610      -0.46376
    12  H(1)              -0.01815     -40.55802     -14.47211     -13.52870
    13  O(17)             -0.17711      53.68093      19.15469      17.90603
    14  O(17)              0.15797     -47.88028     -17.08487     -15.97114
    15  O(17)              0.04456     -13.50674      -4.81954      -4.50536
    16  H(1)               0.00359       8.01751       2.86085       2.67435
 --------------------------------------------------------
       Center         ----  Spin Dipole Couplings  ----
                      3XX-RR        3YY-RR        3ZZ-RR
 --------------------------------------------------------
     1   Atom        0.000769     -0.011259      0.010491
     2   Atom        0.001394     -0.000777     -0.000617
     3   Atom        0.002128     -0.008037      0.005909
     4   Atom        0.005087     -0.005470      0.000384
     5   Atom        0.010936     -0.011542      0.000607
     6   Atom        0.005006     -0.004162     -0.000844
     7   Atom        0.004718     -0.004673     -0.000044
     8   Atom       -0.000527     -0.002128      0.002655
     9   Atom        0.001572     -0.001550     -0.000022
    10   Atom        0.023450     -0.025780      0.002329
    11   Atom       -0.254858      0.141779      0.113079
    12   Atom        0.006037     -0.042695      0.036657
    13   Atom       -2.888795      1.411153      1.477642
    14   Atom       -1.474295      2.969762     -1.495467
    15   Atom       -0.711975      1.489508     -0.777532
    16   Atom        0.012201      0.013478     -0.025679
 --------------------------------------------------------
                        XY            XZ            YZ
 --------------------------------------------------------
     1   Atom        0.002263      0.005330      0.006932
     2   Atom        0.005792      0.003282      0.002763
     3   Atom        0.005033      0.009731      0.000280
     4   Atom        0.000337      0.003030     -0.002416
     5   Atom       -0.002282      0.000332      0.007012
     6   Atom        0.004735     -0.004673     -0.000371
     7   Atom       -0.001126      0.000024      0.004490
     8   Atom       -0.006101      0.001983      0.002757
     9   Atom       -0.001352      0.000464      0.001421
    10   Atom        0.002291      0.009725      0.000185
    11   Atom        0.015354      0.136720     -0.028056
    12   Atom       -0.036546      0.014588     -0.051336
    13   Atom       -0.928896      0.845822      0.187256
    14   Atom       -0.556741     -0.074339      0.448074
    15   Atom       -0.275926      0.031968      0.257270
    16   Atom       -0.003391     -0.001076     -0.010160
 --------------------------------------------------------


 ---------------------------------------------------------------------------------
              Anisotropic Spin Dipole Couplings in Principal Axis System
 ---------------------------------------------------------------------------------

       Atom             a.u.   MegaHertz   Gauss  10(-4) cm-1        Axes

              Baa    -0.0133    -1.787    -0.638    -0.596 -0.0530  0.9619 -0.2682
     1 C(13)  Bbb    -0.0015    -0.207    -0.074    -0.069  0.9242 -0.0544 -0.3780
              Bcc     0.0149     1.994     0.712     0.665  0.3782  0.2679  0.8861
 
              Baa    -0.0056    -2.980    -1.063    -0.994 -0.6362  0.7715 -0.0088
     2 H(1)   Bbb    -0.0027    -1.434    -0.512    -0.478 -0.3404 -0.2705  0.9006
              Bcc     0.0083     4.414     1.575     1.472  0.6924  0.5759  0.4347
 
              Baa    -0.0111    -5.937    -2.118    -1.980 -0.5136  0.8111  0.2800
     3 H(1)   Bbb    -0.0033    -1.782    -0.636    -0.594 -0.5602 -0.5641  0.6066
              Bcc     0.0145     7.719     2.754     2.575  0.6499  0.1546  0.7441
 
              Baa    -0.0065    -3.472    -1.239    -1.158 -0.1251  0.9178  0.3767
     4 H(1)   Bbb    -0.0001    -0.061    -0.022    -0.020 -0.4443 -0.3914  0.8059
              Bcc     0.0066     3.533     1.261     1.178  0.8871 -0.0666  0.4567
 
              Baa    -0.0149    -2.004    -0.715    -0.668  0.0853  0.9075 -0.4113
     5 C(13)  Bbb     0.0038     0.504     0.180     0.168  0.0865  0.4045  0.9105
              Bcc     0.0112     1.500     0.535     0.500  0.9926 -0.1133 -0.0440
 
              Baa    -0.0067    -3.559    -1.270    -1.187 -0.4630  0.8271 -0.3187
     6 H(1)   Bbb    -0.0024    -1.266    -0.452    -0.422  0.2421  0.4639  0.8522
              Bcc     0.0090     4.825     1.722     1.609  0.8527  0.3174 -0.4150
 
              Baa    -0.0075    -1.005    -0.359    -0.335  0.0798  0.8534 -0.5151
     7 C(13)  Bbb     0.0026     0.342     0.122     0.114  0.2425  0.4846  0.8405
              Bcc     0.0049     0.662     0.236     0.221  0.9669 -0.1919 -0.1683
 
              Baa    -0.0085    -4.538    -1.619    -1.514  0.6258  0.7240 -0.2901
     8 H(1)   Bbb     0.0036     1.920     0.685     0.640  0.3725  0.0493  0.9267
              Bcc     0.0049     2.618     0.934     0.873 -0.6853  0.6880  0.2389
 
              Baa    -0.0028    -1.518    -0.542    -0.506  0.3033  0.8302 -0.4677
     9 H(1)   Bbb     0.0008     0.409     0.146     0.136  0.2025  0.4235  0.8830
              Bcc     0.0021     1.109     0.396     0.370  0.9311 -0.3625 -0.0397
 
              Baa    -0.0259    -3.474    -1.240    -1.159 -0.0484  0.9988  0.0101
    10 C(13)  Bbb    -0.0014    -0.194    -0.069    -0.065 -0.3615 -0.0270  0.9320
              Bcc     0.0273     3.668     1.309     1.224  0.9311  0.0414  0.3624
 
              Baa    -0.3013   -40.436   -14.429   -13.488  0.9473 -0.0528 -0.3161
    11 C(13)  Bbb     0.1276    17.120     6.109     5.711  0.2239  0.8147  0.5349
              Bcc     0.1738    23.316     8.320     7.778  0.2293 -0.5774  0.7836
 
              Baa    -0.0770   -41.058   -14.651   -13.696  0.3239  0.8771  0.3547
    12 H(1)   Bbb     0.0018     0.968     0.346     0.323  0.8514 -0.1067 -0.5136
              Bcc     0.0751    40.090    14.305    13.373  0.4126 -0.4684  0.7813
 
              Baa    -3.2399   234.439    83.654    78.200  0.9631  0.1996 -0.1806
    13 O(17)  Bbb     1.5994  -115.734   -41.297   -38.605 -0.2471  0.9217 -0.2991
              Bcc     1.6405  -118.705   -42.357   -39.596  0.1067  0.3327  0.9370
 
              Baa    -1.5606   112.922    40.294    37.667  0.7332  0.0229  0.6796
    14 O(17)  Bbb    -1.5228   110.192    39.319    36.756 -0.6689 -0.1554  0.7269
              Bcc     3.0834  -223.114   -79.613   -74.423 -0.1222  0.9876  0.0986
 
              Baa    -0.8447    61.125    21.811    20.389 -0.5224 -0.1542  0.8387
    15 O(17)  Bbb    -0.7060    51.085    18.228    17.040  0.8444  0.0436  0.5339
              Bcc     1.5507  -112.210   -40.039   -37.429 -0.1189  0.9871  0.1074
 
              Baa    -0.0282   -15.069    -5.377    -5.027  0.0459  0.2399  0.9697
    16 H(1)   Bbb     0.0106     5.642     2.013     1.882  0.8701  0.4673 -0.1568
              Bcc     0.0177     9.428     3.364     3.145 -0.4908  0.8509 -0.1873
 

 ---------------------------------------------------------------------------------

 Calling FoFJK, ICntrl=      2127 FMM=F ISym2X=0 I1Cent= 0 IOpClX= 1 NMat=1 NMatS=1 NMatT=0.
 -------------------------------------------------------------------
 Center     Atomic                   Forces (Hartrees/Bohr)
 Number     Number              X              Y              Z
 -------------------------------------------------------------------
      1        6          -0.002073413    0.006413965   -0.003977764
      2        1          -0.000145452    0.000780626    0.002014138
      3        1          -0.000072782   -0.000201768    0.000603636
      4        1           0.000059375    0.000034240    0.000861851
      5        6           0.003759486    0.000434214    0.005543138
      6        1           0.000950021    0.000194624   -0.000696129
      7        6           0.000476542    0.001844838   -0.001931700
      8        1           0.000204238    0.000199958    0.000498114
      9        1           0.000651205   -0.000734628   -0.000436826
     10        6           0.030964426    0.031466552   -0.012573918
     11        6          -0.018867051    0.058599590   -0.012059651
     12        1          -0.051495095   -0.016085066    0.001126883
     13        8           0.035711550   -0.064406746   -0.015659586
     14        8          -0.085752195   -0.012066603    0.017682381
     15        8           0.082281124   -0.008045872    0.016505037
     16        1           0.003348023    0.001572078    0.002500397
 -------------------------------------------------------------------
 Cartesian Forces:  Max     0.085752195 RMS     0.024868097

 GradGradGradGradGradGradGradGradGradGradGradGradGradGradGradGradGradGrad
 Berny optimization.
 FormGI is forming the generalized inverse of G from B-inverse, IUseBI=4.
 Internal  Forces:  Max     0.084548003 RMS     0.019044937
 Search for a local minimum.
 Step number   1 out of a maximum of   81
 All quantities printed in internal units (Hartrees-Bohrs-Radians)
 Mixed Optimization -- RFO/linear search
 Second derivative matrix not updated -- first step.
 ITU=  0
     Eigenvalues ---    0.00230   0.00463   0.00740   0.01214   0.01763
     Eigenvalues ---    0.01821   0.03124   0.03124   0.04079   0.05044
     Eigenvalues ---    0.05762   0.05800   0.06775   0.07676   0.15983
     Eigenvalues ---    0.16000   0.16000   0.16000   0.16000   0.16000
     Eigenvalues ---    0.16000   0.16000   0.16492   0.17974   0.21961
     Eigenvalues ---    0.22005   0.25000   0.27387   0.30086   0.30261
     Eigenvalues ---    0.32172   0.34645   0.34780   0.34852   0.34951
     Eigenvalues ---    0.35206   0.35416   0.35612   0.35911   0.40119
     Eigenvalues ---    0.43641   0.61494
 RFO step:  Lambda=-8.17038494D-02 EMin= 2.30000000D-03
 Linear search not attempted -- first point.
 Maximum step size (   0.300) exceeded in Quadratic search.
    -- Step size scaled by   0.650
 Iteration  1 RMS(Cart)=  0.06134385 RMS(Int)=  0.00397843
 Iteration  2 RMS(Cart)=  0.00401462 RMS(Int)=  0.00146709
 Iteration  3 RMS(Cart)=  0.00002122 RMS(Int)=  0.00146698
 Iteration  4 RMS(Cart)=  0.00000010 RMS(Int)=  0.00146698
 Variable       Old X    -DE/DX   Delta X   Delta X   Delta X     New X
                                 (Linear)    (Quad)   (Total)
    R1        2.05755  -0.00029   0.00000  -0.00044  -0.00044   2.05711
    R2        2.05916  -0.00049   0.00000  -0.00074  -0.00074   2.05842
    R3        2.06033  -0.00046   0.00000  -0.00070  -0.00070   2.05963
    R4        2.87792  -0.00361   0.00000  -0.00613  -0.00613   2.87179
    R5        2.05004  -0.00013   0.00000  -0.00019  -0.00019   2.04986
    R6        2.49777  -0.00122   0.00000  -0.00114  -0.00114   2.49664
    R7        2.83830  -0.00238   0.00000  -0.00383  -0.00383   2.83446
    R8        2.04693  -0.00023   0.00000  -0.00035  -0.00035   2.04658
    R9        2.04221  -0.00032   0.00000  -0.00047  -0.00047   2.04175
   R10        2.93499  -0.00946   0.00000  -0.01730  -0.01730   2.91769
   R11        2.71392   0.01052   0.00000   0.01416   0.01416   2.72809
   R12        2.05342   0.03374   0.00000   0.05059   0.05059   2.10402
   R13        2.87446  -0.05876   0.00000  -0.09944  -0.09944   2.77502
   R14        2.06255  -0.00264   0.00000  -0.00400  -0.00400   2.05855
   R15        2.66886  -0.08455   0.00000  -0.10613  -0.10613   2.56273
    A1        1.90567   0.00118   0.00000   0.00289   0.00289   1.90855
    A2        1.89574   0.00128   0.00000   0.00270   0.00269   1.89843
    A3        1.92380  -0.00315   0.00000  -0.00900  -0.00900   1.91480
    A4        1.90580   0.00060   0.00000   0.00266   0.00266   1.90846
    A5        1.91258   0.00043   0.00000   0.00152   0.00152   1.91410
    A6        1.92002  -0.00030   0.00000  -0.00065  -0.00066   1.91936
    A7        2.09907   0.00223   0.00000   0.00544   0.00544   2.10451
    A8        1.99203  -0.00025   0.00000  -0.00123  -0.00123   1.99080
    A9        2.19051  -0.00199   0.00000  -0.00429  -0.00429   2.18622
   A10        2.13368   0.00059   0.00000   0.00158   0.00158   2.13526
   A11        2.11271  -0.00111   0.00000  -0.00298  -0.00298   2.10973
   A12        2.03677   0.00052   0.00000   0.00139   0.00139   2.03816
   A13        1.94225   0.00855   0.00000   0.01255   0.01235   1.95460
   A14        1.94663  -0.01102   0.00000  -0.02538  -0.02542   1.92121
   A15        1.91879  -0.00145   0.00000  -0.00225  -0.00200   1.91679
   A16        2.02205  -0.00120   0.00000  -0.00458  -0.00449   2.01756
   A17        1.84894  -0.00993   0.00000  -0.02809  -0.02811   1.82083
   A18        1.77304   0.01541   0.00000   0.05050   0.05061   1.82366
   A19        1.97610  -0.02227   0.00000  -0.03646  -0.03130   1.94480
   A20        2.42991  -0.05844   0.00000  -0.12730  -0.12940   2.30051
   A21        1.93285   0.02424   0.00000   0.04046   0.03666   1.96951
   A22        1.11648   0.04009   0.00000   0.14465   0.15234   1.26882
   A23        1.93676  -0.00629   0.00000  -0.02133  -0.02078   1.91598
   A24        1.87407   0.02580   0.00000   0.04652   0.04205   1.91612
   A25        2.20419  -0.06872   0.00000  -0.13474  -0.13474   2.06945
    D1       -0.88156   0.00154   0.00000   0.00444   0.00446  -0.87711
    D2        3.11421   0.00530   0.00000   0.02175   0.02175   3.13596
    D3        1.16134  -0.00642   0.00000  -0.02398  -0.02401   1.13733
    D4       -2.97922   0.00178   0.00000   0.00554   0.00556  -2.97366
    D5        1.01656   0.00554   0.00000   0.02285   0.02285   1.03941
    D6       -0.93632  -0.00618   0.00000  -0.02288  -0.02290  -0.95922
    D7        1.20852   0.00096   0.00000   0.00171   0.00173   1.21024
    D8       -1.07889   0.00472   0.00000   0.01902   0.01902  -1.05987
    D9       -3.03177  -0.00701   0.00000  -0.02672  -0.02673  -3.05850
   D10       -3.12496  -0.00030   0.00000  -0.00174  -0.00174  -3.12670
   D11        0.00750  -0.00042   0.00000  -0.00241  -0.00241   0.00509
   D12       -0.04721  -0.00060   0.00000  -0.00347  -0.00347  -0.05069
   D13        3.08525  -0.00072   0.00000  -0.00414  -0.00414   3.08110
   D14        1.46238   0.00156   0.00000   0.00287   0.00294   1.46532
   D15       -2.57296  -0.00719   0.00000  -0.02559  -0.02563  -2.59859
   D16       -0.62260   0.00468   0.00000   0.01581   0.01578  -0.60682
   D17       -1.61879   0.00176   0.00000   0.00428   0.00435  -1.61444
   D18        0.62905  -0.00699   0.00000  -0.02417  -0.02422   0.60484
   D19        2.57941   0.00488   0.00000   0.01722   0.01720   2.59661
   D20        2.21407  -0.01238   0.00000  -0.07467  -0.07279   2.14128
   D21       -2.73420   0.01559   0.00000   0.08763   0.08540  -2.64880
   D22        0.02590  -0.00614   0.00000  -0.05037  -0.04953  -0.02363
   D23       -0.03164  -0.01317   0.00000  -0.06471  -0.06302  -0.09465
   D24        1.30329   0.01479   0.00000   0.09759   0.09517   1.39846
   D25       -2.21980  -0.00694   0.00000  -0.04041  -0.03976  -2.25956
   D26       -2.02580  -0.01038   0.00000  -0.06058  -0.05900  -2.08479
   D27       -0.69088   0.01759   0.00000   0.10173   0.09919  -0.59168
   D28        2.06922  -0.00414   0.00000  -0.03628  -0.03574   2.03348
   D29        0.80211  -0.00338   0.00000  -0.00341  -0.00331   0.79880
   D30        2.90244   0.00021   0.00000  -0.00615  -0.00593   2.89651
   D31       -1.26133   0.00183   0.00000   0.00030  -0.00001  -1.26134
         Item               Value     Threshold  Converged?
 Maximum Force            0.084548     0.000450     NO 
 RMS     Force            0.019045     0.000300     NO 
 Maximum Displacement     0.240156     0.001800     NO 
 RMS     Displacement     0.061350     0.001200     NO 
 Predicted change in Energy=-4.137474D-02
 GradGradGradGradGradGradGradGradGradGradGradGradGradGradGradGradGradGrad

                          Input orientation:                          
 ---------------------------------------------------------------------
 Center     Atomic      Atomic             Coordinates (Angstroms)
 Number     Number       Type             X           Y           Z
 ---------------------------------------------------------------------
      1          6           0       -1.621755   -0.761639    0.335780
      2          1           0       -1.421412   -1.798509    0.599900
      3          1           0       -0.831464   -0.396797   -0.319076
      4          1           0       -2.576426   -0.711202   -0.187637
      5          6           0       -2.582523   -0.504076    2.632931
      6          1           0       -2.114416   -1.264799    3.248425
      7          6           0       -3.862956   -0.214023    2.780704
      8          1           0       -4.362306    0.530280    2.172786
      9          1           0       -4.465507   -0.724061    3.518373
     10          6           0       -1.674912    0.087013    1.595309
     11          6           0       -1.950753    1.561495    1.229691
     12          1           0       -2.865642    1.942166    1.737353
     13          8           0       -1.589310    2.819367    1.895684
     14          8           0        0.717124    0.318879    1.453118
     15          8           0       -0.376753    0.108201    2.226526
     16          1           0       -2.031139    1.722917    0.155383
 ---------------------------------------------------------------------
                    Distance matrix (angstroms):
                    1          2          3          4          5
     1  C    0.000000
     2  H    1.088575   0.000000
     3  H    1.089269   1.776894   0.000000
     4  H    1.089911   1.771019   1.777926   0.000000
     5  C    2.503261   2.675247   3.433957   2.828169   0.000000
     6  H    2.996562   2.789227   3.889275   3.510904   1.084738
     7  C    3.361624   3.636982   4.339583   3.273132   1.321164
     8  H    3.543199   4.067688   4.419920   3.209710   2.109325
     9  H    4.268165   4.351832   5.295223   4.159724   2.092374
    10  C    1.519687   2.147160   2.147172   2.151458   1.499934
    11  C    2.510830   3.459257   2.736127   2.750534   2.575811
    12  H    3.289715   4.168003   3.719883   3.290835   2.620366
    13  O    3.906144   4.799169   3.977840   4.216580   3.546164
    14  O    2.808259   3.128042   2.459875   3.821075   3.599568
    15  O    2.425195   2.715284   2.634743   3.367219   2.324967
    16  H    2.524511   3.601360   2.481435   2.517923   3.376650
                    6          7          8          9         10
     6  H    0.000000
     7  C    2.092913   0.000000
     8  H    3.071208   1.083006   0.000000
     9  H    2.427529   1.080445   1.842451   0.000000
    10  C    2.180219   2.506654   2.784250   3.484743   0.000000
    11  C    3.477070   3.035560   2.787189   4.097050   1.543976
    12  H    3.623852   2.594680   2.103099   3.583345   2.208983
    13  O    4.334289   3.892837   3.606413   4.843708   2.750148
    14  O    3.707936   4.798292   5.134513   5.675621   2.407451
    15  O    2.439033   3.544651   4.008201   4.368002   1.443642
    16  H    4.301197   3.741604   3.305546   4.819082   2.208272
                   11         12         13         14         15
    11  C    0.000000
    12  H    1.113398   0.000000
    13  O    1.468479   1.556783   0.000000
    14  O    2.951539   3.943611   3.430445   0.000000
    15  O    2.362883   3.130062   2.988340   1.356139   0.000000
    16  H    1.089338   1.801970   2.103822   3.347893   3.103858
                   16
    16  H    0.000000
 Symmetry turned off by external request.
 Stoichiometry    C5H8O3
 Framework group  C1[X(C5H8O3)]
 Deg. of freedom    42
 Full point group                 C1      NOp   1
 Rotational constants (GHZ):           2.3689453           1.8051354           1.3485485
 Standard basis: CC-pVTZ (5D, 7F)
   352 basis functions,   552 primitive gaussians,   400 cartesian basis functions
    31 alpha electrons       31 beta electrons
       nuclear repulsion energy       380.0573716546 Hartrees.
 NAtoms=   16 NActive=   16 NUniq=   16 SFac= 1.00D+00 NAtFMM=   60 NAOKFM=F Big=F
 Integral buffers will be    131072 words long.
 Raffenetti 2 integral format.
 Two-electron integral symmetry is turned off.
 Nuclear repulsion after empirical dispersion term =      380.0569719948 Hartrees.
 One-electron integrals computed using PRISM.
 NBasis=   352 RedAO= T EigKep=  2.64D-04  NBF=   352
 NBsUse=   352 1.00D-06 EigRej= -1.00D+00 NBFU=   352
 Initial guess from the checkpoint file:  "di1.chk"
 B after Tr=    -0.037421   -0.034254   -0.023985
         Rot=    0.999973   -0.003231   -0.003799    0.005379 Ang=  -0.84 deg.
 Initial guess <Sx>= 0.0000 <Sy>= 0.0000 <Sz>= 0.0000 <S**2>= 1.0027 S= 0.6192
 ExpMin= 1.03D-01 ExpMax= 1.53D+04 ExpMxC= 5.22D+02 IAcc=2 IRadAn=         4 AccDes= 0.00D+00
 Harris functional with IExCor= 1009 and IRadAn=       4 diagonalized for initial guess.
 HarFok:  IExCor= 1009 AccDes= 0.00D+00 IRadAn=         4 IDoV= 1 UseB2=F ITyADJ=14
 ICtDFT=  3500011 ScaDFX=  1.000000  1.000000  1.000000  1.000000
 FoFCou: FMM=F IPFlag=           0 FMFlag=      100000 FMFlg1=           0
         NFxFlg=           0 DoJE=T BraDBF=F KetDBF=T FulRan=T
         wScrn=  0.000000 ICntrl=       500 IOpCl=  0 I1Cent=   200000004 NGrid=           0
         NMat0=    1 NMatS0=      1 NMatT0=    0 NMatD0=    1 NMtDS0=    0 NMtDT0=    0
 Symmetry not used in FoFCou.
 Requested convergence on RMS density matrix=1.00D-08 within 128 cycles.
 Requested convergence on MAX density matrix=1.00D-06.
 Requested convergence on             energy=1.00D-06.
 No special actions if energy rises.
 Integral accuracy reduced to 1.0D-05 until final iterations.
 Initial convergence to 1.0D-05 achieved.  Increase integral accuracy.
 SCF Done:  E(UM062X) =  -420.707342961     A.U. after   20 cycles
            NFock= 20  Conv=0.96D-08     -V/T= 2.0060
 <Sx>= 0.0000 <Sy>= 0.0000 <Sz>= 0.0000 <S**2>= 1.0054 S= 0.6205
 <L.S>=  0.00000000000    
 Annihilation of the first spin contaminant:
 S**2 before annihilation     1.0054,   after     0.0752
 Calling FoFJK, ICntrl=      2127 FMM=F ISym2X=0 I1Cent= 0 IOpClX= 1 NMat=1 NMatS=1 NMatT=0.
 -------------------------------------------------------------------
 Center     Atomic                   Forces (Hartrees/Bohr)
 Number     Number              X              Y              Z
 -------------------------------------------------------------------
      1        6          -0.000838829    0.001136392   -0.001859621
      2        1          -0.000193579   -0.000235329    0.000272477
      3        1          -0.000698589   -0.000456869    0.000677058
      4        1          -0.000182813    0.000157098    0.001187395
      5        6           0.000164927    0.000604743    0.002172385
      6        1           0.000269094    0.000080818   -0.000460299
      7        6          -0.000419519    0.000170197   -0.000076084
      8        1          -0.000172222   -0.000424579    0.000524421
      9        1           0.000117376   -0.000299208   -0.000121231
     10        6           0.021765515    0.023889326   -0.005754253
     11        6          -0.024617893    0.064263454    0.016203069
     12        1          -0.027136353   -0.022304917   -0.013428537
     13        8           0.027411964   -0.055081092   -0.017802544
     14        8          -0.050965141   -0.005856486    0.019575264
     15        8           0.052235065   -0.005227203   -0.001189222
     16        1           0.003260997   -0.000416346    0.000079724
 -------------------------------------------------------------------
 Cartesian Forces:  Max     0.064263454 RMS     0.019033884

 GradGradGradGradGradGradGradGradGradGradGradGradGradGradGradGradGradGrad
 Berny optimization.
 Using GEDIIS/GDIIS optimizer.
 FormGI is forming the generalized inverse of G from B-inverse, IUseBI=4.
 Internal  Forces:  Max     0.053183292 RMS     0.013435179
 Search for a local minimum.
 Step number   2 out of a maximum of   81
 All quantities printed in internal units (Hartrees-Bohrs-Radians)
 Mixed Optimization -- RFO/linear search
 Update second derivatives using D2CorX and points    1    2
 DE= -4.64D-02 DEPred=-4.14D-02 R= 1.12D+00
 TightC=F SS=  1.41D+00  RLast= 3.75D-01 DXNew= 5.0454D-01 1.1250D+00
 Trust test= 1.12D+00 RLast= 3.75D-01 DXMaxT set to 5.05D-01
 ITU=  1  0
 Use linear search instead of GDIIS.
     Eigenvalues ---    0.00230   0.00463   0.00740   0.01208   0.01767
     Eigenvalues ---    0.02244   0.03124   0.03125   0.04236   0.04842
     Eigenvalues ---    0.05799   0.05823   0.06748   0.07647   0.12503
     Eigenvalues ---    0.15982   0.16000   0.16000   0.16000   0.16000
     Eigenvalues ---    0.16000   0.16072   0.16488   0.17437   0.18525
     Eigenvalues ---    0.22081   0.27211   0.27408   0.28760   0.30142
     Eigenvalues ---    0.32233   0.34649   0.34780   0.34851   0.34951
     Eigenvalues ---    0.35416   0.35611   0.35911   0.38295   0.39978
     Eigenvalues ---    0.44435   0.61518
 RFO step:  Lambda=-1.75733685D-02 EMin= 2.30045191D-03
 Quartic linear search produced a step of  1.42633.
 Iteration  1 RMS(Cart)=  0.11105563 RMS(Int)=  0.02754538
 Iteration  2 RMS(Cart)=  0.03577716 RMS(Int)=  0.00891872
 Iteration  3 RMS(Cart)=  0.00208649 RMS(Int)=  0.00873457
 Iteration  4 RMS(Cart)=  0.00006601 RMS(Int)=  0.00873449
 Iteration  5 RMS(Cart)=  0.00000277 RMS(Int)=  0.00873449
 Iteration  6 RMS(Cart)=  0.00000012 RMS(Int)=  0.00873449
 Variable       Old X    -DE/DX   Delta X   Delta X   Delta X     New X
                                 (Linear)    (Quad)   (Total)
    R1        2.05711   0.00025  -0.00063   0.00266   0.00203   2.05914
    R2        2.05842  -0.00107  -0.00105  -0.00509  -0.00614   2.05228
    R3        2.05963  -0.00040  -0.00099  -0.00094  -0.00193   2.05770
    R4        2.87179  -0.00063  -0.00874   0.01048   0.00173   2.87352
    R5        2.04986  -0.00020  -0.00027  -0.00084  -0.00110   2.04876
    R6        2.49664   0.00038  -0.00162   0.00373   0.00211   2.49875
    R7        2.83446   0.00138  -0.00547   0.01880   0.01333   2.84780
    R8        2.04658  -0.00051  -0.00049  -0.00236  -0.00285   2.04373
    R9        2.04175  -0.00001  -0.00067   0.00105   0.00038   2.04213
   R10        2.91769  -0.00562  -0.02467  -0.00117  -0.02584   2.89185
   R11        2.72809   0.00902   0.02020   0.01829   0.03849   2.76657
   R12        2.10402   0.00855   0.07216  -0.06487   0.00729   2.11131
   R13        2.77502  -0.04851  -0.14183  -0.10977  -0.25160   2.52342
   R14        2.05855  -0.00038  -0.00571   0.00701   0.00130   2.05985
   R15        2.56273  -0.05318  -0.15138  -0.03866  -0.19004   2.37269
    A1        1.90855   0.00010   0.00412  -0.00252   0.00147   1.91003
    A2        1.89843   0.00041   0.00384  -0.00550  -0.00161   1.89682
    A3        1.91480  -0.00015  -0.01284   0.02749   0.01461   1.92941
    A4        1.90846   0.00069   0.00380  -0.00182   0.00196   1.91042
    A5        1.91410   0.00047   0.00217   0.00266   0.00475   1.91886
    A6        1.91936  -0.00151  -0.00094  -0.02038  -0.02131   1.89805
    A7        2.10451  -0.00068   0.00776  -0.02141  -0.01365   2.09086
    A8        1.99080  -0.00164  -0.00176  -0.01317  -0.01494   1.97586
    A9        2.18622   0.00230  -0.00613   0.03439   0.02826   2.21448
   A10        2.13526   0.00080   0.00226   0.00558   0.00783   2.14309
   A11        2.10973  -0.00062  -0.00425   0.00106  -0.00319   2.10654
   A12        2.03816  -0.00018   0.00198  -0.00669  -0.00471   2.03345
   A13        1.95460   0.00214   0.01761  -0.01726   0.00007   1.95467
   A14        1.92121  -0.00440  -0.03625   0.02601  -0.01029   1.91092
   A15        1.91679  -0.00021  -0.00285  -0.00020  -0.00269   1.91410
   A16        2.01756   0.00023  -0.00640   0.01992   0.01366   2.03122
   A17        1.82083  -0.00445  -0.04010   0.02623  -0.01398   1.80684
   A18        1.82366   0.00710   0.07219  -0.05897   0.01340   1.83706
   A19        1.94480  -0.01486  -0.04465  -0.03109  -0.05750   1.88730
   A20        2.30051  -0.04976  -0.18457  -0.13809  -0.33531   1.96520
   A21        1.96951   0.01580   0.05229   0.00733   0.03556   2.00507
   A22        1.26882   0.03913   0.21729   0.14818   0.40194   1.67076
   A23        1.91598  -0.00405  -0.02964  -0.00451  -0.03028   1.88570
   A24        1.91612   0.02175   0.05998   0.07506   0.09722   2.01334
   A25        2.06945  -0.03479  -0.19218   0.04931  -0.14287   1.92659
    D1       -0.87711   0.00115   0.00635   0.00369   0.01013  -0.86698
    D2        3.13596   0.00277   0.03102  -0.03087   0.00020   3.13617
    D3        1.13733  -0.00319  -0.03424   0.02562  -0.00862   1.12872
    D4       -2.97366   0.00083   0.00793  -0.01194  -0.00400  -2.97766
    D5        1.03941   0.00245   0.03259  -0.04650  -0.01392   1.02549
    D6       -0.95922  -0.00351  -0.03267   0.01000  -0.02274  -0.98196
    D7        1.21024   0.00063   0.00246   0.00140   0.00388   1.21412
    D8       -1.05987   0.00225   0.02713  -0.03316  -0.00605  -1.06592
    D9       -3.05850  -0.00372  -0.03813   0.02333  -0.01487  -3.07337
   D10       -3.12670   0.00014  -0.00247   0.02003   0.01756  -3.10914
   D11        0.00509  -0.00008  -0.00343   0.01422   0.01079   0.01588
   D12       -0.05069  -0.00016  -0.00496   0.01570   0.01074  -0.03995
   D13        3.08110  -0.00038  -0.00591   0.00988   0.00397   3.08507
   D14        1.46532   0.00067   0.00419   0.01188   0.01617   1.48149
   D15       -2.59859  -0.00339  -0.03655   0.05019   0.01362  -2.58496
   D16       -0.60682   0.00250   0.02251   0.00521   0.02763  -0.57919
   D17       -1.61444   0.00093   0.00621   0.01638   0.02269  -1.59175
   D18        0.60484  -0.00313  -0.03454   0.05470   0.02015   0.62498
   D19        2.59661   0.00276   0.02453   0.00972   0.03415   2.63075
   D20        2.14128  -0.01126  -0.10382  -0.03622  -0.13044   2.01084
   D21       -2.64880   0.01375   0.12181   0.09661   0.19999  -2.44881
   D22       -0.02363  -0.00638  -0.07065  -0.01176  -0.07287  -0.09650
   D23       -0.09465  -0.01048  -0.08988  -0.05224  -0.13273  -0.22738
   D24        1.39846   0.01453   0.13575   0.08060   0.19770   1.59616
   D25       -2.25956  -0.00561  -0.05671  -0.02777  -0.07516  -2.33472
   D26       -2.08479  -0.00973  -0.08415  -0.05627  -0.13130  -2.21609
   D27       -0.59168   0.01528   0.14148   0.07657   0.19913  -0.39255
   D28        2.03348  -0.00485  -0.05098  -0.03180  -0.07372   1.95976
   D29        0.79880   0.00071  -0.00473   0.12260   0.11798   0.91678
   D30        2.89651   0.00060  -0.00845   0.11702   0.10895   3.00546
   D31       -1.26134   0.00207  -0.00002   0.12451   0.12401  -1.13733
         Item               Value     Threshold  Converged?
 Maximum Force            0.053183     0.000450     NO 
 RMS     Force            0.013435     0.000300     NO 
 Maximum Displacement     0.687955     0.001800     NO 
 RMS     Displacement     0.137003     0.001200     NO 
 Predicted change in Energy=-5.843962D-02
 GradGradGradGradGradGradGradGradGradGradGradGradGradGradGradGradGradGrad

                          Input orientation:                          
 ---------------------------------------------------------------------
 Center     Atomic      Atomic             Coordinates (Angstroms)
 Number     Number       Type             X           Y           Z
 ---------------------------------------------------------------------
      1          6           0       -1.616198   -0.732006    0.346634
      2          1           0       -1.413794   -1.770174    0.608510
      3          1           0       -0.834258   -0.366509   -0.312476
      4          1           0       -2.575483   -0.682345   -0.166188
      5          6           0       -2.593519   -0.463971    2.642862
      6          1           0       -2.100150   -1.197673    3.270286
      7          6           0       -3.885882   -0.230448    2.796771
      8          1           0       -4.432420    0.468713    2.178622
      9          1           0       -4.454753   -0.753123    3.552412
     10          6           0       -1.685327    0.130153    1.597289
     11          6           0       -1.962436    1.582226    1.201675
     12          1           0       -2.962842    1.868602    1.608418
     13          8           0       -1.266044    2.455317    1.933713
     14          8           0        0.517068    0.481622    1.435102
     15          8           0       -0.376704    0.152637    2.253277
     16          1           0       -1.967406    1.772191    0.128343
 ---------------------------------------------------------------------
                    Distance matrix (angstroms):
                    1          2          3          4          5
     1  C    0.000000
     2  H    1.089651   0.000000
     3  H    1.086022   1.776050   0.000000
     4  H    1.088890   1.770042   1.775674   0.000000
     5  C    2.509913   2.690076   3.440715   2.817583   0.000000
     6  H    2.999800   2.807827   3.889666   3.507258   1.084155
     7  C    3.377307   3.642865   4.358708   3.271159   1.322280
     8  H    3.567775   4.073079   4.455327   3.204885   2.113522
     9  H    4.281922   4.352974   5.309879   4.167091   2.091670
    10  C    1.520604   2.159319   2.148998   2.135973   1.506989
    11  C    2.491315   3.448397   2.713486   2.715724   2.581125
    12  H    3.188842   4.079223   3.635440   3.131549   2.578249
    13  O    3.577773   4.430889   3.632425   3.996141   3.284406
    14  O    2.684861   3.079297   2.366313   3.671896   3.468224
    15  O    2.440128   2.734597   2.657434   3.374260   2.333720
    16  H    2.538110   3.617374   2.460159   2.545830   3.422753
                    6          7          8          9         10
     6  H    0.000000
     7  C    2.085325   0.000000
     8  H    3.067255   1.081498   0.000000
     9  H    2.412752   1.080646   1.838662   0.000000
    10  C    2.175803   2.532041   2.828267   3.503198   0.000000
    11  C    3.467846   3.087031   2.880132   4.146259   1.530299
    12  H    3.592782   2.582672   2.108194   3.588642   2.157400
    13  O    3.978253   3.849903   3.746000   4.804387   2.386497
    14  O    3.610784   4.663384   5.005040   5.543157   2.236153
    15  O    2.414107   3.571620   4.068699   4.374773   1.464008
    16  H    4.325450   3.848586   3.461068   4.928321   2.221184
                   11         12         13         14         15
    11  C    0.000000
    12  H    1.117257   0.000000
    13  O    1.335339   1.824603   0.000000
    14  O    2.722821   3.750137   2.706210   0.000000
    15  O    2.379944   3.169935   2.489052   1.255575   0.000000
    16  H    1.090025   1.786284   2.053761   3.089628   3.109442
                   16
    16  H    0.000000
 Symmetry turned off by external request.
 Stoichiometry    C5H8O3
 Framework group  C1[X(C5H8O3)]
 Deg. of freedom    42
 Full point group                 C1      NOp   1
 Rotational constants (GHZ):           2.8331474           1.8152630           1.4963430
 Standard basis: CC-pVTZ (5D, 7F)
   352 basis functions,   552 primitive gaussians,   400 cartesian basis functions
    31 alpha electrons       31 beta electrons
       nuclear repulsion energy       393.3273150352 Hartrees.
 NAtoms=   16 NActive=   16 NUniq=   16 SFac= 1.00D+00 NAtFMM=   60 NAOKFM=F Big=F
 Integral buffers will be    131072 words long.
 Raffenetti 2 integral format.
 Two-electron integral symmetry is turned off.
 Nuclear repulsion after empirical dispersion term =      393.3269291016 Hartrees.
 One-electron integrals computed using PRISM.
 NBasis=   352 RedAO= T EigKep=  2.82D-04  NBF=   352
 NBsUse=   352 1.00D-06 EigRej= -1.00D+00 NBFU=   352
 Initial guess from the checkpoint file:  "di1.chk"
 B after Tr=    -0.015427   -0.024113   -0.018037
         Rot=    0.999944   -0.006131   -0.003237    0.007962 Ang=  -1.21 deg.
 Initial guess <Sx>= 0.0000 <Sy>= 0.0000 <Sz>= 0.0000 <S**2>= 1.0038 S= 0.6197
 ExpMin= 1.03D-01 ExpMax= 1.53D+04 ExpMxC= 5.22D+02 IAcc=2 IRadAn=         4 AccDes= 0.00D+00
 Harris functional with IExCor= 1009 and IRadAn=       4 diagonalized for initial guess.
 HarFok:  IExCor= 1009 AccDes= 0.00D+00 IRadAn=         4 IDoV= 1 UseB2=F ITyADJ=14
 ICtDFT=  3500011 ScaDFX=  1.000000  1.000000  1.000000  1.000000
 FoFCou: FMM=F IPFlag=           0 FMFlag=      100000 FMFlg1=           0
         NFxFlg=           0 DoJE=T BraDBF=F KetDBF=T FulRan=T
         wScrn=  0.000000 ICntrl=       500 IOpCl=  0 I1Cent=   200000004 NGrid=           0
         NMat0=    1 NMatS0=      1 NMatT0=    0 NMatD0=    1 NMtDS0=    0 NMtDT0=    0
 Symmetry not used in FoFCou.
 Requested convergence on RMS density matrix=1.00D-08 within 128 cycles.
 Requested convergence on MAX density matrix=1.00D-06.
 Requested convergence on             energy=1.00D-06.
 No special actions if energy rises.
 Integral accuracy reduced to 1.0D-05 until final iterations.
 Initial convergence to 1.0D-05 achieved.  Increase integral accuracy.
 SCF Done:  E(UM062X) =  -420.747871176     A.U. after   25 cycles
            NFock= 25  Conv=0.92D-08     -V/T= 2.0049
 <Sx>= 0.0000 <Sy>= 0.0000 <Sz>= 0.0000 <S**2>= 0.9978 S= 0.6170
 <L.S>=  0.00000000000    
 Annihilation of the first spin contaminant:
 S**2 before annihilation     0.9978,   after     0.0667
 Calling FoFJK, ICntrl=      2127 FMM=F ISym2X=0 I1Cent= 0 IOpClX= 1 NMat=1 NMatS=1 NMatT=0.
 -------------------------------------------------------------------
 Center     Atomic                   Forces (Hartrees/Bohr)
 Number     Number              X              Y              Z
 -------------------------------------------------------------------
      1        6          -0.000509647   -0.005147458    0.003671132
      2        1          -0.000400340   -0.000171475   -0.000635380
      3        1           0.000220110    0.000332574   -0.000479154
      4        1          -0.000771481   -0.000053480    0.000135284
      5        6           0.001101909    0.000842865   -0.002313269
      6        1           0.000352556    0.000022152    0.000900193
      7        6           0.001534421   -0.000274083   -0.000443976
      8        1          -0.000447083    0.001137800   -0.000410888
      9        1          -0.000031169   -0.000109418   -0.000166656
     10        6          -0.003911398   -0.007334640   -0.000571114
     11        6          -0.020625630    0.006532859    0.016310435
     12        1          -0.003456550   -0.006651878   -0.010368315
     13        8           0.015153802    0.018041285    0.001282753
     14        8           0.035948967    0.014887705   -0.020888417
     15        8          -0.026867250   -0.021687613    0.017498938
     16        1           0.002708785   -0.000367194   -0.003521567
 -------------------------------------------------------------------
 Cartesian Forces:  Max     0.035948967 RMS     0.010254039

 GradGradGradGradGradGradGradGradGradGradGradGradGradGradGradGradGradGrad
 Berny optimization.
 Using GEDIIS/GDIIS optimizer.
 FormGI is forming the generalized inverse of G from B-inverse, IUseBI=4.
 Internal  Forces:  Max     0.043101659 RMS     0.007281421
 Search for a local minimum.
 Step number   3 out of a maximum of   81
 All quantities printed in internal units (Hartrees-Bohrs-Radians)
 Mixed Optimization -- RFO/linear search
 Update second derivatives using D2CorX and points    2    3
 DE= -4.05D-02 DEPred=-5.84D-02 R= 6.94D-01
 TightC=F SS=  1.41D+00  RLast= 8.04D-01 DXNew= 8.4853D-01 2.4132D+00
[...]

 Dipole orientation:
     6         -2.09154820          0.78932885          2.61658907
     1         -1.59761798          2.77023153          2.87640712
     1         -0.44186516         -0.22324488          1.92038180
     1         -2.65710943          0.01142302          4.43553287
     6         -6.48930006          2.11746587          1.55622058
     1         -6.09689712          4.12436723          1.70938982
     6         -8.76037587          1.23638495          2.11061537
     1         -9.23750947         -0.74795906          1.96090828
     1        -10.24603900          2.49493844          2.72915208
     6         -4.26448394          0.55484175          0.75191186
     6         -4.90634004         -2.21983595          0.27607832
     1         -5.17129389         -3.21704435          2.07584334
     8         -6.84933064         -2.60802743         -1.36411307
     8         -1.50851328          0.60893208         -2.60665999
     8         -3.48449577          1.69289248         -1.65958904
     1         -3.24250587         -3.07433557         -0.64891955

 Electric dipole moment (dipole orientation):
 (Debye = 10**-18 statcoulomb cm , SI units = C m)
                  (au)            (Debye)         (10**-30 SI)
   Tot        0.137664D+01      0.349907D+01      0.116716D+02
   x          0.000000D+00      0.000000D+00      0.000000D+00
   y          0.000000D+00      0.000000D+00      0.000000D+00
   z          0.137664D+01      0.349907D+01      0.116716D+02

 Dipole polarizability, Alpha (dipole orientation).
 (esu units = cm**3 , SI units = C**2 m**2 J**-1)
 Alpha(0;0):
               (au)            (10**-24 esu)      (10**-40 SI)
   iso        0.692083D+02      0.102556D+02      0.114109D+02
   aniso      0.253342D+02      0.375414D+01      0.417704D+01
   xx         0.825570D+02      0.122337D+02      0.136118D+02
   yx         0.110840D+01      0.164248D+00      0.182751D+00
   yy         0.635631D+02      0.941908D+01      0.104801D+02
   zx        -0.824606D+01     -0.122194D+01     -0.135959D+01
   zy         0.316441D+01      0.468918D+00      0.521742D+00
   zz         0.615047D+02      0.911405D+01      0.101408D+02

 ----------------------------------------------------------------------
 1\1\GINC-FENG10\Freq\UM062X\CC-pVTZ\C5H8O3\LIDONGYANG\15-Sep-2025\0\\#
 N Geom=AllCheck Guess=TCheck SCRF=Check GenChk UM062X/CC-pVTZ Freq\\Ti
 tle Card Required\\0,1\C,-1.620505395,-0.7761306649,0.2971260462\H,-1.
 2991579619,-1.7825348586,0.5615738454\H,-0.9039884428,-0.3494673732,-0
 .4025114121\H,-2.5985639302,-0.838093751,-0.1772976207\C,-2.6054958318
 ,-0.5424368924,2.5774350645\H,-2.2766194617,-1.5198587019,2.9151230616
 \C,-3.721711922,-0.0164720776,3.0519922978\H,-4.0789098847,0.960536811
 4,2.7511005759\H,-4.3209267437,-0.5520164643,3.775110478\C,-1.71409091
 14,0.0849708566,1.546527791\C,-2.1046070396,1.5177793814,1.1870560224\
 H,-2.9968293999,1.5207644611,0.5474379451\O,-2.2205726208,2.3596993089
 ,2.2502722397\O,0.5230815032,0.5997345428,1.4179131907\O,-0.3935850842
 ,0.1161214282,2.1921281884\H,-1.2776670135,1.9326156134,0.5842600159\\
 Version=ES64L-G16RevA.03\HF=-420.7630701\S2=1.004604\S2-1=0.\S2A=0.070
 485\RMSD=3.699e-09\RMSF=8.349e-06\ZeroPoint=0.1246971\Thermal=0.133522
 6\Dipole=-0.97657,-0.6813973,-0.6907562\DipoleDeriv=-0.1097624,0.01966
 02,0.0846523,-0.0407267,-0.0106773,-0.0179653,0.0262249,-0.0118289,-0.
 073323,0.0709817,0.0459335,-0.0066439,0.0378407,-0.0681777,0.0079895,-
 0.0180587,0.0453927,0.042334,0.030718,-0.0216385,0.0795234,-0.0271746,
 0.0383707,0.0282426,0.0632221,0.0025579,-0.0043214,-0.04769,-0.0055312
 ,-0.0620588,0.0087085,0.0700495,0.0030774,-0.064807,-0.0200423,0.06193
 01,-0.044683,-0.0345251,-0.1205886,-0.0318348,-0.031616,-0.133165,-0.0
 995032,-0.1116441,-0.114062,0.0653489,0.0488147,0.0287999,0.0521679,-0
 .0237041,0.0540937,0.0545762,0.0791179,0.0660009,-0.1532069,-0.0413817
 ,-0.0336678,-0.0518373,0.0020604,-0.0761425,-0.0788737,-0.1045909,-0.1
 169814,0.1050809,0.0187803,0.0090255,0.0477073,-0.0203831,0.0566791,0.
 0109569,0.083708,0.0677113,0.054544,-0.0060659,0.073067,-0.0339094,0.0
 416664,0.0812411,0.0804508,0.0493076,0.0624196,0.7202639,-0.0385247,-0
 .0841793,0.1226327,0.2800556,-0.0035045,0.061741,0.1168989,0.3767649,0
 .0575467,0.1902664,0.1422388,0.0994156,0.2152458,0.1154411,0.0767598,0
 .0226714,0.0420039,-0.0540809,0.0006122,-0.1183824,-0.0036902,0.089365
 6,-0.0894599,-0.0769984,-0.0150644,0.0142992,-0.2042381,-0.035028,-0.0
 09019,-0.0646094,-0.319889,-0.0281597,-0.0323392,-0.0818575,-0.171153,
 -0.1859507,0.1021933,-0.1352336,0.0489284,-0.1172685,-0.0779441,-0.113
 747,-0.0819867,-0.0424788,-0.4212528,-0.1076088,0.1263937,-0.1101783,-
 0.2358729,0.1051659,0.0898095,0.0720333,-0.3250459,0.1163807,-0.135956
 7,0.0260728,-0.0534404,0.0907747,-0.0255893,0.0205862,-0.0446728,0.113
 9016\Polar=77.9984102,-1.4943929,65.2438252,-12.3916217,-0.1404742,64.
 3825886\Quadrupole=4.3643957,-1.1529746,-3.2114211,1.7910159,-2.168122
 3,-5.0295237\PG=C01 [X(C5H8O3)]\NImag=0\\0.59394092,0.00434432,0.55407
 606,0.00466747,-0.05381350,0.51008868,-0.06994600,0.07467844,-0.018958
 84,0.07116505,0.07426037,-0.27890381,0.06402648,-0.08208247,0.30271361
 ,-0.02072346,0.06608075,-0.06413050,0.02126286,-0.06707535,0.06907134,
 -0.16578833,-0.07092157,0.11690016,0.00757424,0.00411600,-0.00790766,0
 .17739801,-0.07179820,-0.09157787,0.07112997,-0.02039981,-0.01021939,0
 .01800379,0.07829215,0.09678381,0.11385978,0.06954840,-0.15761682,0.00
 436163,0.00221599,-0.00493934,-0.12763596,-0.07384128,0.17189005,-0.26
 936365,-0.01394882,-0.10778806,-0.00742808,-0.00116301,-0.00270677,-0.
 01627397,0.00012899,-0.00960495,0.29008809,-0.01235280,-0.04712834,-0.
 00669540,0.02719867,0.00372739,0.01316652,-0.01078856,-0.00154448,-0.0
 0679682,0.01409273,0.04832802,-0.10552610,-0.00685706,-0.09731511,-0.0
 0609437,-0.00075984,-0.00408584,0.01877741,-0.00001747,0.01097875,0.11
 726557,0.00931569,0.10479715,-0.00125270,0.00260400,0.00901536,-0.0002
 0521,-0.00090531,0.00000079,-0.00002441,-0.00108948,-0.00011252,0.0001
 3255,-0.00025868,-0.00064647,0.68155510,0.01344899,0.01055990,-0.01291
 583,0.00058520,0.00045148,-0.00098602,0.00057472,-0.00249176,-0.004743
 68,-0.00007152,0.00023854,0.00043035,-0.22765057,0.58427254,0.01974680
 ,0.00739383,-0.02690766,-0.00040422,0.00120785,0.00150403,0.00037284,-
 0.00209636,-0.00341722,0.00052999,0.00070371,0.00082174,-0.23219262,-0
 .08824233,0.37454055,0.00042829,-0.00054589,-0.00063862,0.00000117,0.0
 0036688,0.00006803,-0.00013705,0.00008415,-0.00007133,0.00000804,0.000
 09240,-0.00007184,-0.07477833,0.07675217,-0.01948287,0.07569480,-0.000
 06160,0.00039301,-0.00036148,-0.00002396,0.00052987,0.00031436,-0.0001
 5176,0.00019721,0.00008533,-0.00009678,-0.00000122,-0.00007774,0.07868
 522,-0.27900360,0.08375028,-0.08807705,0.29372405,-0.00100426,0.000811
 36,0.00140041,0.00044511,-0.00048131,-0.00039851,0.00005247,-0.0003683
 5,0.00022697,0.00001774,-0.00002390,-0.00020425,-0.02076917,0.08473887
 ,-0.07573084,0.01474572,-0.09412039,0.07124655,-0.00134849,-0.00214154
 ,-0.00090459,-0.00007159,-0.00000511,-0.00000915,0.00065359,0.00059150
 ,0.00041415,0.00032953,0.00007748,0.00053764,-0.43489544,0.17606500,0.
 16486872,-0.00495635,0.00337639,0.00646760,0.67456046,-0.00157456,-0.0
 0163422,0.00150512,-0.00020218,0.00033950,0.00009783,-0.00024182,0.000
 64769,0.00077876,-0.00005414,0.00006864,0.00001817,0.17337046,-0.18078
 519,-0.04568152,0.02756609,-0.00749007,-0.01080908,-0.19264541,0.59182
 374,0.00181560,0.00151087,-0.00079177,0.00006905,-0.00024685,-0.000158
 29,0.00015885,-0.00058640,-0.00065086,-0.00017082,0.00003731,0.0002324
 8,0.16517290,-0.04798163,-0.13804976,-0.00727438,0.00549710,0.00855455
 ,-0.27765495,-0.13542933,0.38701616,0.00059053,0.00005690,-0.00003480,
 0.00010285,-0.00021119,-0.00017039,0.00002295,-0.00017031,-0.00010802,
 0.00001461,0.00005941,0.00001530,-0.00340779,0.02623351,-0.00786174,-0
 .00045016,0.00388600,0.00643075,-0.08092826,0.08391711,-0.01727137,0.0
 8003170,0.00040219,0.00015804,-0.00003867,-0.00001859,-0.00004532,-0.0
 0000092,0.00003592,-0.00011658,-0.00016075,0.00002466,-0.00001543,-0.0
 0009828,0.00437357,-0.00766347,0.00516421,0.00374217,0.00278149,0.0024
 9212,0.08769475,-0.28526819,0.07801385,-0.09683632,0.29964216,0.000767
 30,0.00035549,-0.00051614,0.00003970,0.00000234,-0.00001034,0.00004904
 ,-0.00027741,-0.00015213,0.00003563,0.00004907,-0.00000178,0.00535885,
 -0.00891335,0.00841083,0.00622851,0.00276279,0.00585717,-0.01970783,0.
 08001119,-0.07071949,0.01616713,-0.08743905,0.06314281,-0.00128930,-0.
 00108515,0.00094865,-0.00002292,0.00003195,-0.00003172,-0.00004857,0.0
 0038813,0.00048760,0.00002142,-0.00001038,-0.00000592,-0.01116691,-0.0
 1501246,0.01956915,-0.00151388,-0.00199800,-0.00356520,-0.13691894,-0.
 07404696,0.11147186,0.00789193,0.00569782,-0.00652869,0.14117227,-0.00
 069771,-0.00013159,0.00034195,-0.00003302,0.00003178,0.00005165,-0.000
 00959,0.00013070,0.00011622,-0.00002019,-0.00007857,-0.00007098,0.0108
 2457,0.00945058,-0.01033040,-0.00220458,-0.00059813,-0.00292908,-0.079
 01836,-0.12803611,0.10612166,-0.01413193,-0.00813286,0.01677981,0.0796
 7594,0.12550716,-0.00129509,-0.00073085,0.00094396,-0.00000495,-0.0000
 0058,-0.00002789,-0.00008109,0.00033625,0.00035480,-0.00002868,-0.0000
 6296,-0.00012784,0.00637023,0.00653280,-0.00341277,-0.00353359,-0.0030
 4887,-0.00398098,0.11324689,0.10346871,-0.17654552,0.00489101,0.002528
 32,-0.00144117,-0.12653555,-0.11273085,0.17750946,-0.07239380,0.006149
 19,0.01263686,-0.00246313,0.00555490,0.00855564,-0.00149965,0.01473250
 ,0.01802839,0.00099457,-0.01654662,-0.02418835,-0.11244854,-0.03082297
 ,0.05733955,0.00594277,0.00519480,-0.00493273,-0.01586434,-0.00902691,
 0.02137216,-0.00163469,-0.00324933,-0.00291661,0.00073877,0.00429454,0
 .00439432,0.41137184,0.01042630,-0.11777644,-0.05302494,0.00037331,-0.
 01960236,-0.02790444,-0.00070972,0.00739599,0.01137782,0.00020517,-0.0
 0120835,0.00051412,-0.02251717,-0.11687002,0.04733262,-0.01712020,-0.0
 1149727,0.02077645,0.00662089,0.01241311,-0.00734442,-0.00116576,-0.00
 138319,-0.00320154,0.00562463,0.00099307,0.00255222,0.00868801,0.50926
 616,0.02149147,-0.04926961,-0.14891101,-0.00139587,0.00380603,0.005741
 04,0.00063441,-0.01335975,-0.02025363,0.00163787,-0.00507909,-0.010975
 96,0.04881040,0.04781457,-0.14495765,0.00763533,0.00390786,-0.00538081
 ,0.01168013,0.00280981,-0.00604094,-0.00470005,-0.00203970,-0.00395003
 ,0.00500827,0.00427786,0.00863453,-0.06369182,-0.03626598,0.51685832,0
 .00095654,0.00386030,0.00123512,-0.00002682,-0.00025641,-0.00002691,0.
 00013094,0.00024188,0.00016000,-0.00015446,-0.00030241,-0.00019179,0.0
 0725048,-0.01622828,0.00514909,-0.00228669,-0.00197385,0.00193066,0.00
 004128,-0.00073376,0.00169619,-0.00008963,0.00084685,0.00044272,0.0004
 1371,0.00004912,0.00017267,-0.06514355,0.01343160,-0.00283839,0.516072
 74,0.00507678,-0.02440071,-0.00091949,0.00048461,0.00015607,-0.0018002
 5,-0.00011881,0.00118065,0.00088781,0.00039837,0.00001996,0.00069392,0
 .00080692,-0.02068138,0.00770429,-0.00042040,0.00096376,0.00120238,0.0
 0077533,0.00013741,-0.00185415,-0.00082316,-0.00065974,0.00079522,0.00
 040631,0.00005872,-0.00015930,-0.00063163,-0.15133003,0.02660578,0.044
 64891,0.45263564,0.00735844,-0.02637026,0.00396871,0.00033534,-0.00332
 734,-0.00365181,-0.00006769,-0.00016242,0.00123498,0.00006846,0.000040
 67,0.00069262,-0.00375410,0.02173872,-0.00611809,0.00236838,0.00154451
 ,-0.00195922,0.00083360,0.00032007,-0.00066524,0.00192953,0.00298118,-
 0.00179500,-0.00038665,0.00005905,0.00001634,-0.00866168,0.03642447,-0
 .07644036,0.03558922,0.02214581,0.46799059,-0.00023155,-0.00008015,-0.
 00025103,0.00017272,0.00007871,0.00036338,-0.00020114,0.00009546,-0.00
 000471,0.00047518,0.00035965,0.00025181,-0.00013784,0.00019568,0.00024
 548,-0.00001188,0.00002548,-0.00019772,-0.00041718,0.00035471,0.000490
 09,-0.00005326,-0.00067540,0.00032059,0.00018091,-0.00009591,0.0001045
 0,-0.00541962,-0.00332879,-0.00227395,-0.21940150,0.01179444,-0.116106
 87,0.23431518,-0.00075513,0.00167446,-0.00082587,-0.00032423,0.0004156
 1,0.00056120,-0.00000118,-0.00001268,0.00014772,0.00023279,-0.00090858
 ,-0.00029966,-0.00035290,0.00108715,-0.00044075,-0.00011716,-0.0001810
 7,-0.00064220,-0.00003132,0.00067741,0.00082848,-0.00008753,0.00076236
 ,-0.00054063,0.00017111,0.00017538,0.00023150,0.02973118,0.00194603,0.
 01590159,-0.00348430,-0.04778203,-0.00651454,-0.00671375,0.05244409,0.
 00006476,-0.00071246,0.00007772,0.00028248,0.00022182,0.00000635,0.000
 17510,0.00016868,-0.00014914,0.00041295,-0.00032247,0.00041331,-0.0003
 2601,-0.00018694,0.00041642,0.00009327,0.00001634,-0.00015631,-0.00004
 853,0.00031720,0.00006416,0.00028035,-0.00015110,-0.00070761,0.0001378
 2,-0.00024623,0.00007508,-0.00936313,0.00103783,-0.00453280,-0.1169611
 6,0.01052679,-0.10965655,0.12943648,0.00482701,0.14009113,0.00012790,0
 .00206227,-0.00080718,0.00048437,0.00043206,0.00041175,0.00003675,-0.0
 0007354,-0.00051166,0.00028288,0.00016559,0.00029626,-0.00026296,-0.00
 125765,-0.00012195,0.00002818,0.00008579,0.00033334,-0.00053809,-0.001
 65020,-0.00053551,-0.00127331,-0.00110369,0.00058813,-0.00008682,-0.00
 025246,0.00001266,-0.00426521,0.00757211,0.00956243,-0.04244761,0.0106
 7987,0.00281237,0.01073795,-0.01425302,-0.01813466,0.04201437,0.001956
 96,-0.00687817,0.00363977,-0.00011018,-0.00132170,-0.00201062,0.000076
 23,0.00015474,0.00016501,-0.00007961,0.00023688,0.00009268,-0.00089664
 ,0.00428852,-0.00140631,0.00016030,0.00010862,-0.00083181,-0.00180344,
 -0.00122582,0.00040695,-0.00044976,-0.00063034,0.00031646,-0.00000333,
 -0.00026810,0.00014965,0.01682435,-0.03629490,-0.03537243,-0.00384115,
 -0.13939487,-0.10139773,-0.00501714,-0.00336713,-0.01737564,-0.0150166
 3,0.17849472,0.00027776,-0.00077476,0.00224889,-0.00015206,-0.00025920
 ,-0.00063875,-0.00008074,0.00031487,-0.00020754,-0.00007770,0.00033191
 ,-0.00014524,0.00004980,0.00236489,-0.00031090,0.00002148,-0.00005603,
 0.00031494,-0.00029846,0.00047071,0.00001626,0.00001152,-0.00079846,0.
 00085041,-0.00026374,-0.00006450,-0.00023316,0.00878743,-0.01870160,-0
 .00162509,-0.00940149,-0.12219269,-0.16481970,0.00121878,-0.01443383,-
 0.03561033,-0.01387007,0.15910511,0.23257166,0.00301941,0.00039010,0.0
 0110848,-0.00040864,-0.00102797,-0.00027268,-0.00129183,-0.00080075,-0
 .00027976,0.00034641,0.00047245,0.00147729,-0.00937503,0.00269843,-0.0
 0681241,0.00002403,-0.00041844,0.00043087,-0.00082462,-0.00217090,0.00
 183946,-0.00024047,-0.00032817,-0.00059007,0.00017069,0.00074190,0.001
 11394,-0.05749084,-0.02303375,0.03050164,-0.00164600,0.00163108,0.0023
 4570,0.00065544,-0.00182502,0.00023471,0.00050603,-0.00139628,-0.00025
 372,0.31521185,-0.00044521,0.00132457,-0.00140275,0.00003539,-0.000275
 48,0.00011185,-0.00102717,-0.00123072,0.00026177,0.00006247,0.00021871
 ,0.00088545,-0.00163066,0.00190420,-0.00134524,0.00016355,0.00015726,-
 0.00013703,0.00001115,-0.00058673,0.00034348,-0.00004636,0.00013206,-0
 .00000978,-0.00007621,0.00017810,0.00009831,-0.01473732,-0.00766407,-0
 .00119883,0.00316009,-0.00080943,0.00026640,0.00067253,-0.00002359,-0.
 00049432,0.00021826,0.00041963,0.00098983,0.13403892,0.07757614,-0.004
 10039,-0.00184528,-0.00250596,0.00004122,0.00019716,0.00023804,-0.0026
 2055,-0.00096098,0.00094018,-0.00091442,-0.00067865,0.00042958,-0.0020
 1876,-0.00088469,0.00112491,-0.00025734,-0.00013910,-0.00017170,-0.000
 29859,0.00013053,0.00041352,0.00000851,-0.00007514,0.00008035,-0.00008
 984,-0.00003223,-0.00002998,0.01393806,-0.00678257,0.01684565,-0.00117
 425,0.00105295,0.00254089,-0.00086991,0.00054193,0.00049214,-0.0006735
 6,0.00022480,-0.00153961,-0.18502600,-0.11193389,0.19941616,-0.0179217
 5,-0.00473763,-0.01749075,0.00099220,0.00092564,0.00154766,-0.00077734
 ,-0.00022533,0.00100726,0.00067377,-0.00212045,-0.00190272,-0.04101897
 ,-0.00625703,-0.00005727,0.00174237,0.00120801,-0.00066199,0.00121138,
 -0.00271244,-0.00103207,-0.00022437,-0.00019369,-0.00032785,0.00054755
 ,0.00075429,0.00117757,-0.08109896,0.00964507,-0.05708190,-0.02948539,
 0.01157253,-0.01673863,-0.00156699,0.00456051,0.00052525,0.00161459,-0
 .00228151,-0.00125511,-0.24855709,-0.12275570,0.18604945,0.41545052,-0
 .02112808,-0.00180720,-0.01064851,-0.00035056,0.00159210,0.00111808,0.
 00061911,0.00121253,0.00056831,0.00009721,-0.00195176,-0.00382335,-0.0
 1815512,-0.00030904,-0.00471377,0.00055560,0.00058979,-0.00055043,-0.0
 0041317,-0.00087420,0.00076315,-0.00039207,-0.00011326,-0.00012506,0.0
 0024927,0.00062574,0.00076101,0.00302774,-0.05127924,0.01692307,0.0310
 4962,-0.00142667,0.01554770,0.00156135,-0.00587375,0.00143423,-0.00026
 149,0.00237280,0.00063780,-0.10887764,-0.07129463,0.12165219,0.1142493
 2,0.12637860,-0.03718420,-0.00406768,-0.02098931,0.00033511,0.00060118
 ,0.00193699,0.00100468,0.00197558,0.00155477,0.00155734,-0.00383647,-0
 .00538238,0.02557897,0.00039600,0.01199236,-0.00008498,-0.00030392,0.0
 0030910,0.00140315,0.00219867,-0.00276093,0.00061072,0.00030358,0.0006
 3808,-0.00024882,-0.00126543,-0.00176022,-0.03463869,0.02531582,-0.117
 71167,-0.02141607,0.00532857,-0.01421407,-0.00011715,0.00258398,-0.000
 29790,0.00292322,-0.00228196,0.00272953,0.15363214,0.11454949,-0.21804
 783,-0.09493752,-0.14022262,0.36161439,0.00047199,-0.00068478,0.000361
 77,0.00007980,-0.00011506,-0.00036138,0.00022579,0.00000266,0.00001010
 ,-0.00014690,-0.00013847,0.00000628,0.00003599,0.00074679,-0.00088855,
 0.00026468,0.00033977,0.00027680,-0.00003293,-0.00014910,-0.00014707,-
 0.00035263,-0.00041273,0.00007345,-0.00008992,0.00012342,-0.00000482,0
 .00067436,0.00528831,-0.00497996,-0.16418404,-0.08628115,0.09207460,-0
 .01909642,-0.00675006,0.01319033,-0.00695904,0.01187784,0.01528632,-0.
 00009934,0.00235628,-0.00199364,-0.00158155,-0.00183108,0.00158210,0.1
 9079016,-0.00110262,0.00205230,0.00000315,0.00018939,0.00041065,0.0002
 7158,0.00025605,-0.00050985,-0.00061061,0.00019168,-0.00000140,0.00005
 399,0.00279179,-0.00444844,0.00099989,-0.00099803,-0.00067369,0.000872
 38,0.00084587,-0.00020697,-0.00008007,0.00016149,0.00055227,-0.0005655
 3,-0.00001267,0.00009414,0.00007463,-0.01918244,-0.01710850,0.02053884
 ,-0.07046821,-0.06866736,0.03670369,0.00077314,-0.00103368,0.00093925,
 0.01265273,0.00330511,-0.00693407,-0.00009396,-0.00002602,-0.00046704,
 -0.00163158,0.00215818,-0.00127477,0.07562736,0.08410325,-0.00021588,-
 0.00125925,0.00095591,-0.00016219,-0.00012840,-0.00045651,0.00026873,-
 0.00025873,0.00020618,-0.00023414,-0.00014912,-0.00012725,-0.00053762,
 0.00083828,0.00009405,0.00025423,0.00022896,0.00007293,-0.00052976,-0.
 00020684,0.00008568,-0.00019845,-0.00068119,0.00031404,0.00003276,-0.0
 0007852,0.00002538,0.00334060,0.00789412,-0.00729957,0.10563439,0.0499
 8237,-0.09712409,-0.01260975,-0.00192592,0.00947435,0.01771441,-0.0034
 2393,-0.03360136,0.00055041,-0.00098473,-0.00022633,0.00117861,0.00067
 821,0.00038909,-0.11448634,-0.05052530,0.12721751\\-0.00001095,0.00000
 185,-0.00001124,0.00000421,0.00000113,0.00000344,-0.00000341,-0.000000
 32,0.00000024,-0.00000014,-0.00000170,0.00000024,0.00000638,-0.0000074
 9,-0.00000139,-0.00000261,0.00000114,0.00000191,-0.00000128,0.00000460
 ,0.00000019,-0.00000018,-0.00000067,0.00000158,0.00000082,-0.00000179,
 -0.00000123,0.00002412,0.00001387,0.00000660,0.00002673,0.00000714,-0.
 00000694,-0.00001666,-0.00000379,-0.00000022,0.00000117,-0.00000691,-0
 .00001120,-0.00000317,0.00000229,-0.00000455,-0.00001318,-0.00001284,0
 .00000754,-0.00001186,0.00000349,0.00001504\\\@


 GOOD SENSE ABOUT TRIVIALITIES IS BETTER THAN NONSENSE
 ABOUT THINGS THAT MATTER

                                       -- MAX BEERBOHM
 Job cpu time:       0 days  4 hours 28 minutes 58.5 seconds.
 Elapsed time:       0 days  0 hours 26 minutes 56.8 seconds.
 File lengths (MBytes):  RWF=    316 Int=      0 D2E=      0 Chk=     15 Scr=      1
 Normal termination of Gaussian 16 at Mon Sep 15 04:34:45 2025.
