 Entering Gaussian System, Link 0=g16
 Initial command:
 /opt/apps/g16-avx/g16/l1.exe "/tmp/Gau-20467.inp" -scrdir="/tmp/"
 Entering Link 1 = /opt/apps/g16-avx/g16/l1.exe PID=     20468.
  
 Copyright (c) 1988,1990,1992,1993,1995,1998,2003,2009,2016,
            Gaussian, Inc.  All Rights Reserved.
  
 This is part of the Gaussian(R) 16 program.  It is based on
 the Gaussian(R) 09 system (copyright 2009, Gaussian, Inc.),
 the Gaussian(R) 03 system (copyright 2003, Gaussian, Inc.),
 the Gaussian(R) 98 system (copyright 1998, Gaussian, Inc.),
 the Gaussian(R) 94 system (copyright 1995, Gaussian, Inc.),
 the Gaussian 92(TM) system (copyright 1992, Gaussian, Inc.),
 the Gaussian 90(TM) system (copyright 1990, Gaussian, Inc.),
 the Gaussian 88(TM) system (copyright 1988, Gaussian, Inc.),
 the Gaussian 86(TM) system (copyright 1986, Carnegie Mellon
 University), and the Gaussian 82(TM) system (copyright 1983,
 Carnegie Mellon University). Gaussian is a federally registered
 trademark of Gaussian, Inc.
  
 This software contains proprietary and confidential information,
 including trade secrets, belonging to Gaussian, Inc.
  
 This software is provided under written license and may be
 used, copied, transmitted, or stored only in accord with that
 written license.
  
 The following legend is applicable only to US Government
 contracts under FAR:
  
                    RESTRICTED RIGHTS LEGEND
  
 Use, reproduction and disclosure by the US Government is
 subject to restrictions as set forth in subparagraphs (a)
 and (c) of the Commercial Computer Software - Restricted
 Rights clause in FAR 52.227-19.
  
 Gaussian, Inc.
 340 Quinnipiac St., Bldg. 40, Wallingford CT 06492
  
  
 ---------------------------------------------------------------
 Warning -- This program may not be used in any manner that
 competes with the business of Gaussian, Inc. or will provide
 assistance to any competitor of Gaussian, Inc.  The licensee
 of this program is prohibited from giving any competitor of
 Gaussian, Inc. access to this program.  By using this program,
 the user acknowledges that Gaussian, Inc. is engaged in the
 business of creating and licensing software in the field of
 computational chemistry and represents and warrants to the
 licensee that it is not a competitor of Gaussian, Inc. and that
 it will not use this program in any manner prohibited above.
 ---------------------------------------------------------------
  

 Cite this work as:
 Gaussian 16, Revision A.03,
 M. J. Frisch, G. W. Trucks, H. B. Schlegel, G. E. Scuseria, 
 M. A. Robb, J. R. Cheeseman, G. Scalmani, V. Barone, 
 G. A. Petersson, H. Nakatsuji, X. Li, M. Caricato, A. V. Marenich, 
 J. Bloino, B. G. Janesko, R. Gomperts, B. Mennucci, H. P. Hratchian, 
 J. V. Ortiz, A. F. Izmaylov, J. L. Sonnenberg, D. Williams-Young, 
 F. Ding, F. Lipparini, F. Egidi, J. Goings, B. Peng, A. Petrone, 
 T. Henderson, D. Ranasinghe, V. G. Zakrzewski, J. Gao, N. Rega, 
 G. Zheng, W. Liang, M. Hada, M. Ehara, K. Toyota, R. Fukuda, 
 J. Hasegawa, M. Ishida, T. Nakajima, Y. Honda, O. Kitao, H. Nakai, 
 T. Vreven, K. Throssell, J. A. Montgomery, Jr., J. E. Peralta, 
 F. Ogliaro, M. J. Bearpark, J. J. Heyd, E. N. Brothers, K. N. Kudin, 
 V. N. Staroverov, T. A. Keith, R. Kobayashi, J. Normand, 
 K. Raghavachari, A. P. Rendell, J. C. Burant, S. S. Iyengar, 
 J. Tomasi, M. Cossi, J. M. Millam, M. Klene, C. Adamo, R. Cammi, 
 J. W. Ochterski, R. L. Martin, K. Morokuma, O. Farkas, 
 J. B. Foresman, and D. J. Fox, Gaussian, Inc., Wallingford CT, 2016.
 
 ******************************************
 Gaussian 16:  ES64L-G16RevA.03 25-Dec-2016
                 3-Sep-2025 
 ******************************************
 %nprocshared=8
 Will use up to    8 processors via shared memory.
 %mem=20GB
 %chk=POZ1.chk
 --------------------------------------
 # opt freq cc-pvtz nosymm em=gd3 m062x
 --------------------------------------
 1/18=20,19=15,26=3,38=1/1,3;
 2/9=110,12=2,15=1,17=6,18=5,40=1/2;
 3/5=16,6=1,11=2,25=1,30=1,71=1,74=-55,124=31/1,2,3;
 4//1;
 5/5=2,38=5/2;
 6/7=2,8=2,9=2,10=2,28=1/1;
 7/30=1/1,2,3,16;
 1/18=20,19=15,26=3/3(2);
 2/9=110,15=1/2;
 99//99;
 2/9=110,15=1/2;
 3/5=16,6=1,11=2,25=1,30=1,71=1,74=-55,124=31/1,2,3;
 4/5=5,16=3,69=1/1;
 5/5=2,38=5/2;
 7/30=1/1,2,3,16;
 1/18=20,19=15,26=3/3(-5);
 2/9=110,15=1/2;
 6/7=2,8=2,9=2,10=2,19=2,28=1/1;
 99/9=1/99;
 -------------------
 Title Card Required
 -------------------
 Symbolic Z-matrix:
 Charge =  0 Multiplicity = 1
 C                    -1.62822  -0.77623   0.4501 
 H                    -1.30168  -1.76982   0.67604 
 H                    -0.92881  -0.31337  -0.21434 
 H                    -2.59088  -0.81438  -0.01544 
 C                    -2.74388  -0.63883   2.67732 
 H                    -2.4251   -1.39674   3.36204 
 C                    -4.04925  -0.2785    2.62503 
 H                    -4.36804   0.47941   1.9403 
 H                    -4.76113  -0.7519    3.26848 
 C                    -1.71932   0.04252   1.75123 
 C                    -2.06561   1.46817   1.44856 
 H                    -2.46864   2.01362   2.27618 
 O                    -0.77371   2.00336   1.15979 
 O                     0.02636   0.91038   1.18754 
 O                    -0.42893   0.16419   2.24953 
 H                    -2.77508   1.49558   0.64806 
 

 GradGradGradGradGradGradGradGradGradGradGradGradGradGradGradGradGradGrad
 Berny optimization.
 Initialization pass.
                           ----------------------------
                           !    Initial Parameters    !
                           ! (Angstroms and Degrees)  !
 --------------------------                            --------------------------
 ! Name  Definition              Value          Derivative Info.                !
 --------------------------------------------------------------------------------
 ! R1    R(1,2)                  1.07           estimate D2E/DX2                !
 ! R2    R(1,3)                  1.07           estimate D2E/DX2                !
 ! R3    R(1,4)                  1.07           estimate D2E/DX2                !
 ! R4    R(1,10)                 1.54           estimate D2E/DX2                !
 ! R5    R(5,6)                  1.07           estimate D2E/DX2                !
 ! R6    R(5,7)                  1.3552         estimate D2E/DX2                !
 ! R7    R(5,10)                 1.54           estimate D2E/DX2                !
 ! R8    R(7,8)                  1.07           estimate D2E/DX2                !
 ! R9    R(7,9)                  1.07           estimate D2E/DX2                !
 ! R10   R(10,11)                1.498          estimate D2E/DX2                !
 ! R11   R(10,15)                1.3886         estimate D2E/DX2                !
 ! R12   R(11,12)                1.07           estimate D2E/DX2                !
 ! R13   R(11,13)                1.4279         estimate D2E/DX2                !
 ! R14   R(11,16)                1.07           estimate D2E/DX2                !
 ! R15   R(13,14)                1.3548         estimate D2E/DX2                !
 ! R16   R(14,15)                1.3755         estimate D2E/DX2                !
 ! A1    A(2,1,3)              109.4712         estimate D2E/DX2                !
 ! A2    A(2,1,4)              109.4712         estimate D2E/DX2                !
 ! A3    A(2,1,10)             109.4712         estimate D2E/DX2                !
 ! A4    A(3,1,4)              109.4712         estimate D2E/DX2                !
 ! A5    A(3,1,10)             109.4712         estimate D2E/DX2                !
 ! A6    A(4,1,10)             109.4712         estimate D2E/DX2                !
 ! A7    A(6,5,7)              120.0            estimate D2E/DX2                !
 ! A8    A(6,5,10)             120.0            estimate D2E/DX2                !
 ! A9    A(7,5,10)             120.0            estimate D2E/DX2                !
 ! A10   A(5,7,8)              120.0            estimate D2E/DX2                !
 ! A11   A(5,7,9)              120.0            estimate D2E/DX2                !
 ! A12   A(8,7,9)              120.0            estimate D2E/DX2                !
 ! A13   A(1,10,5)             108.1925         estimate D2E/DX2                !
 ! A14   A(1,10,11)            110.4228         estimate D2E/DX2                !
 ! A15   A(1,10,15)            107.1457         estimate D2E/DX2                !
 ! A16   A(5,10,11)            112.878          estimate D2E/DX2                !
 ! A17   A(5,10,15)            116.1815         estimate D2E/DX2                !
 ! A18   A(11,10,15)           101.7674         estimate D2E/DX2                !
 ! A19   A(10,11,12)           114.5785         estimate D2E/DX2                !
 ! A20   A(10,11,13)           100.8605         estimate D2E/DX2                !
 ! A21   A(10,11,16)           109.1971         estimate D2E/DX2                !
 ! A22   A(12,11,13)           107.8278         estimate D2E/DX2                !
 ! A23   A(12,11,16)           108.4122         estimate D2E/DX2                !
 ! A24   A(13,11,16)           116.0406         estimate D2E/DX2                !
 ! A25   A(11,13,14)           103.1667         estimate D2E/DX2                !
 ! A26   A(13,14,15)           104.9516         estimate D2E/DX2                !
 ! A27   A(10,15,14)            94.4772         estimate D2E/DX2                !
 ! D1    D(2,1,10,5)           -60.6615         estimate D2E/DX2                !
 ! D2    D(2,1,10,11)          175.3488         estimate D2E/DX2                !
 ! D3    D(2,1,10,15)           65.3127         estimate D2E/DX2                !
 ! D4    D(3,1,10,5)           179.3385         estimate D2E/DX2                !
 ! D5    D(3,1,10,11)           55.3488         estimate D2E/DX2                !
 ! D6    D(3,1,10,15)          -54.6873         estimate D2E/DX2                !
 ! D7    D(4,1,10,5)            59.3385         estimate D2E/DX2                !
 ! D8    D(4,1,10,11)          -64.6512         estimate D2E/DX2                !
 ! D9    D(4,1,10,15)         -174.6873         estimate D2E/DX2                !
 ! D10   D(6,5,7,8)           -179.9999         estimate D2E/DX2                !
 ! D11   D(6,5,7,9)              0.0001         estimate D2E/DX2                !
 ! D12   D(10,5,7,8)             0.0001         estimate D2E/DX2                !
 ! D13   D(10,5,7,9)          -179.9999         estimate D2E/DX2                !
 ! D14   D(6,5,10,1)            89.3287         estimate D2E/DX2                !
 ! D15   D(6,5,10,11)         -148.1686         estimate D2E/DX2                !
 ! D16   D(6,5,10,15)          -31.1601         estimate D2E/DX2                !
 ! D17   D(7,5,10,1)           -90.6713         estimate D2E/DX2                !
 ! D18   D(7,5,10,11)           31.8314         estimate D2E/DX2                !
 ! D19   D(7,5,10,15)          148.8399         estimate D2E/DX2                !
 ! D20   D(1,10,11,12)         160.1634         estimate D2E/DX2                !
 ! D21   D(1,10,11,13)         -84.334          estimate D2E/DX2                !
 ! D22   D(1,10,11,16)          38.3589         estimate D2E/DX2                !
 ! D23   D(5,10,11,12)          38.9173         estimate D2E/DX2                !
 ! D24   D(5,10,11,13)         154.4199         estimate D2E/DX2                !
 ! D25   D(5,10,11,16)         -82.8872         estimate D2E/DX2                !
 ! D26   D(15,10,11,12)        -86.3274         estimate D2E/DX2                !
 ! D27   D(15,10,11,13)         29.1751         estimate D2E/DX2                !
 ! D28   D(15,10,11,16)        151.868          estimate D2E/DX2                !
 ! D29   D(1,10,15,14)          64.7411         estimate D2E/DX2                !
 ! D30   D(5,10,15,14)        -174.21           estimate D2E/DX2                !
 ! D31   D(11,10,15,14)        -51.1894         estimate D2E/DX2                !
 ! D32   D(10,11,13,14)          5.8124         estimate D2E/DX2                !
 ! D33   D(12,11,13,14)        126.2492         estimate D2E/DX2                !
 ! D34   D(16,11,13,14)       -111.9877         estimate D2E/DX2                !
 ! D35   D(11,13,14,15)        -40.2752         estimate D2E/DX2                !
 ! D36   D(13,14,15,10)         58.3384         estimate D2E/DX2                !
 --------------------------------------------------------------------------------
 Trust Radius=3.00D-01 FncErr=1.00D-07 GrdErr=1.00D-06 EigMax=2.50D+02 EigMin=1.00D-04
 Number of steps in this run=     89 maximum allowed number of steps=    100.
 GradGradGradGradGradGradGradGradGradGradGradGradGradGradGradGradGradGrad

                          Input orientation:                          
 ---------------------------------------------------------------------
 Center     Atomic      Atomic             Coordinates (Angstroms)
 Number     Number       Type             X           Y           Z
 ---------------------------------------------------------------------
      1          6           0       -1.628220   -0.776233    0.450099
      2          1           0       -1.301676   -1.769822    0.676042
      3          1           0       -0.928808   -0.313369   -0.214340
      4          1           0       -2.590882   -0.814381   -0.015441
      5          6           0       -2.743882   -0.638831    2.677316
      6          1           0       -2.425097   -1.396737    3.362045
      7          6           0       -4.049253   -0.278498    2.625031
      8          1           0       -4.368038    0.479407    1.940300
      9          1           0       -4.761126   -0.751902    3.268480
     10          6           0       -1.719318    0.042519    1.751232
     11          6           0       -2.065611    1.468172    1.448562
     12          1           0       -2.468645    2.013621    2.276180
     13          8           0       -0.773712    2.003360    1.159791
     14          8           0        0.026356    0.910383    1.187542
     15          8           0       -0.428934    0.164185    2.249531
     16          1           0       -2.775078    1.495585    0.648060
 ---------------------------------------------------------------------
                    Distance matrix (angstroms):
                    1          2          3          4          5
     1  C    0.000000
     2  H    1.070000   0.000000
     3  H    1.070000   1.747303   0.000000
     4  H    1.070000   1.747303   1.747303   0.000000
     5  C    2.494810   2.713705   3.429591   2.702807   0.000000
     6  H    3.082121   2.935281   4.025307   3.431331   1.070000
     7  C    3.292335   3.683990   4.219055   3.063676   1.355200
     8  H    3.362133   4.007487   4.135127   2.942294   2.105120
     9  H    4.214138   4.441247   5.197019   3.936749   2.105120
    10  C    1.540000   2.148263   2.148263   2.148263   1.540000
    11  C    2.495114   3.415405   2.689136   2.762113   2.531669
    12  H    3.438629   4.270444   3.740142   3.641986   2.696695
    13  O    2.993324   3.840529   2.698059   3.552879   3.628447
    14  O    2.475100   3.034601   2.091693   3.357368   3.506239
    15  O    2.358099   2.641577   2.559021   3.280504   2.487332
    16  H    2.552573   3.582538   2.724842   2.410416   2.945264
                    6          7          8          9         10
     6  H    0.000000
     7  C    2.105120   0.000000
     8  H    3.052261   1.070000   0.000000
     9  H    2.425200   1.070000   1.853294   0.000000
    10  C    2.272510   2.509019   2.691159   3.490808   0.000000
    11  C    3.463864   2.893056   2.553553   3.937846   1.498004
    12  H    3.579321   2.806034   2.464614   3.726694   2.173086
    13  O    4.374661   4.252408   3.981308   5.285594   2.255853
    14  O    4.007604   4.482232   4.479184   5.478456   2.029363
    15  O    2.767460   3.666563   3.963778   4.543716   1.388595
    16  H    3.981674   2.946066   2.289110   3.982735   2.107847
                   11         12         13         14         15
    11  C    0.000000
    12  H    1.070000   0.000000
    13  O    1.427872   2.029588   0.000000
    14  O    2.180731   2.937225   1.354798   0.000000
    15  O    2.240680   2.753460   2.165403   1.375471   0.000000
    16  H    1.070000   1.735810   2.127246   2.912308   3.137153
                   16
    16  H    0.000000
 Symmetry turned off by external request.
 Stoichiometry    C5H8O3
 Framework group  C1[X(C5H8O3)]
 Deg. of freedom    42
 Full point group                 C1      NOp   1
 Rotational constants (GHZ):           4.0222030           1.7392262           1.5732873
 Standard basis: CC-pVTZ (5D, 7F)
   352 basis functions,   552 primitive gaussians,   400 cartesian basis functions
    31 alpha electrons       31 beta electrons
       nuclear repulsion energy       412.7888871896 Hartrees.
 NAtoms=   16 NActive=   16 NUniq=   16 SFac= 1.00D+00 NAtFMM=   60 NAOKFM=F Big=F
 Integral buffers will be    131072 words long.
 Raffenetti 2 integral format.
 Two-electron integral symmetry is turned off.
 Nuclear repulsion after empirical dispersion term =      412.7885521698 Hartrees.
 One-electron integrals computed using PRISM.
 NBasis=   352 RedAO= T EigKep=  2.77D-04  NBF=   352
 NBsUse=   352 1.00D-06 EigRej= -1.00D+00 NBFU=   352
 ExpMin= 1.03D-01 ExpMax= 1.53D+04 ExpMxC= 5.22D+02 IAcc=3 IRadAn=         5 AccDes= 0.00D+00
 Harris functional with IExCor= 1009 and IRadAn=       5 diagonalized for initial guess.
 HarFok:  IExCor= 1009 AccDes= 0.00D+00 IRadAn=         5 IDoV= 1 UseB2=F ITyADJ=14
 ICtDFT=  3500011 ScaDFX=  1.000000  1.000000  1.000000  1.000000
 FoFCou: FMM=F IPFlag=           0 FMFlag=      100000 FMFlg1=           0
         NFxFlg=           0 DoJE=T BraDBF=F KetDBF=T FulRan=T
         wScrn=  0.000000 ICntrl=       500 IOpCl=  0 I1Cent=   200000004 NGrid=           0
         NMat0=    1 NMatS0=      1 NMatT0=    0 NMatD0=    1 NMtDS0=    0 NMtDT0=    0
 Symmetry not used in FoFCou.
 Requested convergence on RMS density matrix=1.00D-08 within 128 cycles.
 Requested convergence on MAX density matrix=1.00D-06.
 Requested convergence on             energy=1.00D-06.
 No special actions if energy rises.
 Integral accuracy reduced to 1.0D-05 until final iterations.
 Initial convergence to 1.0D-05 achieved.  Increase integral accuracy.
 SCF Done:  E(RM062X) =  -420.763356049     A.U. after   13 cycles
            NFock= 13  Conv=0.77D-08     -V/T= 2.0044

 **********************************************************************

            Population analysis using the SCF density.

 **********************************************************************

 Alpha  occ. eigenvalues --  -19.74108 -19.70598 -19.69775 -10.62124 -10.59706
 Alpha  occ. eigenvalues --  -10.57103 -10.55607 -10.52785  -1.38831  -1.17893
 Alpha  occ. eigenvalues --   -1.01117  -0.90180  -0.84440  -0.78953  -0.73490
 Alpha  occ. eigenvalues --   -0.67565  -0.63614  -0.62174  -0.58109  -0.56384
 Alpha  occ. eigenvalues --   -0.52756  -0.50540  -0.49996  -0.47802  -0.46369
 Alpha  occ. eigenvalues --   -0.45401  -0.42894  -0.41028  -0.38236  -0.34312
 Alpha  occ. eigenvalues --   -0.32691
 Alpha virt. eigenvalues --    0.01386   0.06636   0.08451   0.09573   0.10857
 Alpha virt. eigenvalues --    0.11329   0.13126   0.14155   0.15265   0.15939
 Alpha virt. eigenvalues --    0.16433   0.18643   0.20489   0.23707   0.24596
 Alpha virt. eigenvalues --    0.25199   0.28356   0.28728   0.31831   0.34255
 Alpha virt. eigenvalues --    0.36131   0.37842   0.39146   0.40076   0.41820
 Alpha virt. eigenvalues --    0.42120   0.43872   0.44125   0.45565   0.46970
 Alpha virt. eigenvalues --    0.47513   0.48469   0.49270   0.49496   0.50680
 Alpha virt. eigenvalues --    0.51370   0.51942   0.53794   0.54001   0.56221
 Alpha virt. eigenvalues --    0.57792   0.60496   0.62534   0.64305   0.65255
 Alpha virt. eigenvalues --    0.67573   0.69303   0.70880   0.74131   0.75659
 Alpha virt. eigenvalues --    0.77258   0.78088   0.79362   0.81946   0.84576
 Alpha virt. eigenvalues --    0.87196   0.88301   0.89309   0.91349   0.92920
 Alpha virt. eigenvalues --    0.93958   0.95753   0.97857   0.98682   1.01037
 Alpha virt. eigenvalues --    1.02103   1.04791   1.05544   1.06115   1.08685
 Alpha virt. eigenvalues --    1.09533   1.10455   1.13028   1.14765   1.16731
 Alpha virt. eigenvalues --    1.19500   1.20617   1.21732   1.24040   1.25742
 Alpha virt. eigenvalues --    1.26362   1.27408   1.29622   1.30507   1.32169
 Alpha virt. eigenvalues --    1.33193   1.34433   1.36109   1.37307   1.38730
 Alpha virt. eigenvalues --    1.39578   1.43424   1.45666   1.47470   1.49638
 Alpha virt. eigenvalues --    1.50494   1.52578   1.53834   1.57172   1.58309
 Alpha virt. eigenvalues --    1.60446   1.63402   1.65088   1.70992   1.73916
 Alpha virt. eigenvalues --    1.74494   1.78874   1.87065   1.87759   1.96030
 Alpha virt. eigenvalues --    1.98611   2.02808   2.05855   2.06947   2.09667
 Alpha virt. eigenvalues --    2.11218   2.15608   2.16893   2.20190   2.22355
 Alpha virt. eigenvalues --    2.26223   2.28159   2.31529   2.33792   2.35833
 Alpha virt. eigenvalues --    2.39699   2.43351   2.44025   2.46503   2.48548
 Alpha virt. eigenvalues --    2.49344   2.50522   2.53757   2.55474   2.59384
 Alpha virt. eigenvalues --    2.60172   2.64032   2.64804   2.66825   2.68601
 Alpha virt. eigenvalues --    2.70044   2.75209   2.78213   2.81521   2.82277
 Alpha virt. eigenvalues --    2.83759   2.84584   2.85687   2.86553   2.88264
 Alpha virt. eigenvalues --    2.89888   2.91581   2.93753   2.95651   2.96839
 Alpha virt. eigenvalues --    2.98583   2.99638   3.01165   3.02663   3.04359
 Alpha virt. eigenvalues --    3.05925   3.07685   3.09065   3.09631   3.11368
 Alpha virt. eigenvalues --    3.13180   3.14248   3.16140   3.18501   3.19499
 Alpha virt. eigenvalues --    3.20901   3.23154   3.24146   3.26030   3.26680
 Alpha virt. eigenvalues --    3.28073   3.29324   3.31858   3.34899   3.37530
 Alpha virt. eigenvalues --    3.38705   3.41986   3.42160   3.44487   3.46093
 Alpha virt. eigenvalues --    3.46859   3.49651   3.51794   3.54095   3.55461
 Alpha virt. eigenvalues --    3.57472   3.58833   3.60375   3.63530   3.65020
 Alpha virt. eigenvalues --    3.65919   3.68082   3.68535   3.71227   3.71913
 Alpha virt. eigenvalues --    3.76089   3.77491   3.81857   3.83489   3.84218
 Alpha virt. eigenvalues --    3.86111   3.88431   3.88715   3.90118   3.92793
 Alpha virt. eigenvalues --    3.94118   3.94737   3.97007   3.98316   4.02290
 Alpha virt. eigenvalues --    4.02960   4.07375   4.07892   4.08695   4.09886
 Alpha virt. eigenvalues --    4.10796   4.13343   4.13638   4.15654   4.18036
 Alpha virt. eigenvalues --    4.19811   4.22645   4.25662   4.27669   4.29552
 Alpha virt. eigenvalues --    4.32524   4.33415   4.34722   4.37687   4.39865
 Alpha virt. eigenvalues --    4.43207   4.44542   4.48156   4.56894   4.59304
 Alpha virt. eigenvalues --    4.61803   4.64547   4.66742   4.67397   4.69679
 Alpha virt. eigenvalues --    4.72393   4.75449   4.76460   4.80656   4.82950
 Alpha virt. eigenvalues --    4.85588   4.86331   4.86816   4.89715   4.93520
 Alpha virt. eigenvalues --    4.94423   4.95457   4.99925   5.01621   5.04310
 Alpha virt. eigenvalues --    5.08240   5.10611   5.13305   5.16205   5.18608
 Alpha virt. eigenvalues --    5.19753   5.20490   5.23408   5.24643   5.25812
 Alpha virt. eigenvalues --    5.30299   5.31813   5.34748   5.35618   5.40201
 Alpha virt. eigenvalues --    5.40748   5.43993   5.50967   5.54831   5.58673
 Alpha virt. eigenvalues --    5.70095   5.73635   5.79419   5.82331   5.82767
 Alpha virt. eigenvalues --    5.83879   5.85709   5.89714   5.92092   5.95145
 Alpha virt. eigenvalues --    5.99178   6.06238   6.15868   6.17734   6.23061
 Alpha virt. eigenvalues --    6.31967   6.41415   6.47305   6.50209   6.61537
 Alpha virt. eigenvalues --    6.71738   6.81622   6.83202   6.90113   6.91579
 Alpha virt. eigenvalues --    6.98224   7.05477   7.14683   7.26683   7.27483
 Alpha virt. eigenvalues --    7.45333   7.52099   7.75355  10.01120  10.84483
 Alpha virt. eigenvalues --   11.29735  11.52872  12.10113  13.31041  13.80822
 Alpha virt. eigenvalues --   14.23019
          Condensed to atoms (all electrons):
               1          2          3          4          5          6
     1  C    5.081825   0.395502   0.401339   0.388060  -0.071981   0.000642
     2  H    0.395502   0.547022  -0.023048  -0.030961  -0.005722   0.000449
     3  H    0.401339  -0.023048   0.518260  -0.034896   0.010751  -0.000304
     4  H    0.388060  -0.030961  -0.034896   0.593653  -0.011143   0.000851
     5  C   -0.071981  -0.005722   0.010751  -0.011143   5.078295   0.389751
     6  H    0.000642   0.000449  -0.000304   0.000851   0.389751   0.500956
     7  C    0.002239   0.000446   0.000258   0.002696   0.553311  -0.039480
     8  H   -0.000402   0.000063  -0.000000  -0.000193  -0.079513   0.004340
     9  H   -0.000302  -0.000042   0.000025   0.000124  -0.046005  -0.006865
    10  C    0.323198  -0.032227  -0.017880  -0.031102   0.336504  -0.025556
    11  C   -0.051987   0.007624  -0.005436  -0.001820  -0.059084   0.006006
    12  H    0.007634  -0.000333   0.000135  -0.000959   0.000758   0.000296
    13  O    0.004638   0.000185  -0.001864  -0.000229   0.003088  -0.000061
    14  O   -0.040455   0.000896   0.000871   0.001397   0.004577  -0.000390
    15  O   -0.048723   0.002201  -0.008018   0.004927  -0.017567   0.000795
    16  H   -0.007889   0.000103  -0.001740   0.002417  -0.000639  -0.000467
               7          8          9         10         11         12
     1  C    0.002239  -0.000402  -0.000302   0.323198  -0.051987   0.007634
     2  H    0.000446   0.000063  -0.000042  -0.032227   0.007624  -0.000333
     3  H    0.000258  -0.000000   0.000025  -0.017880  -0.005436   0.000135
     4  H    0.002696  -0.000193   0.000124  -0.031102  -0.001820  -0.000959
     5  C    0.553311  -0.079513  -0.046005   0.336504  -0.059084   0.000758
     6  H   -0.039480   0.004340  -0.006865  -0.025556   0.006006   0.000296
     7  C    5.048402   0.420978   0.417447  -0.066237  -0.007665  -0.000109
     8  H    0.420978   0.537048  -0.030581   0.003670   0.002643  -0.003625
     9  H    0.417447  -0.030581   0.530340   0.004675  -0.000271   0.000017
    10  C   -0.066237   0.003670   0.004675   4.991437   0.327007  -0.036357
    11  C   -0.007665   0.002643  -0.000271   0.327007   4.880919   0.416994
    12  H   -0.000109  -0.003625   0.000017  -0.036357   0.416994   0.577611
    13  O   -0.000268  -0.000171  -0.000007  -0.057860   0.320411  -0.037380
    14  O   -0.000186  -0.000028   0.000014  -0.056136  -0.089399   0.003611
    15  O    0.001389   0.000093  -0.000086   0.277324  -0.037759   0.004115
    16  H   -0.002551   0.000387   0.000155  -0.038946   0.390133  -0.074904
              13         14         15         16
     1  C    0.004638  -0.040455  -0.048723  -0.007889
     2  H    0.000185   0.000896   0.002201   0.000103
     3  H   -0.001864   0.000871  -0.008018  -0.001740
     4  H   -0.000229   0.001397   0.004927   0.002417
     5  C    0.003088   0.004577  -0.017567  -0.000639
     6  H   -0.000061  -0.000390   0.000795  -0.000467
     7  C   -0.000268  -0.000186   0.001389  -0.002551
     8  H   -0.000171  -0.000028   0.000093   0.000387
     9  H   -0.000007   0.000014  -0.000086   0.000155
    10  C   -0.057860  -0.056136   0.277324  -0.038946
    11  C    0.320411  -0.089399  -0.037759   0.390133
    12  H   -0.037380   0.003611   0.004115  -0.074904
    13  O    7.954405   0.066508  -0.063599  -0.032259
    14  O    0.066508   8.033956   0.087941   0.008783
    15  O   -0.063599   0.087941   7.937592   0.001610
    16  H   -0.032259   0.008783   0.001610   0.641601
 Mulliken charges:
               1
     1  C   -0.383338
     2  H    0.137844
     3  H    0.161548
     4  H    0.117176
     5  C   -0.085382
     6  H    0.169036
     7  C   -0.330671
     8  H    0.145292
     9  H    0.131361
    10  C    0.098485
    11  C   -0.098317
    12  H    0.142496
    13  O   -0.155538
    14  O   -0.021962
    15  O   -0.142234
    16  H    0.114205
 Sum of Mulliken charges =  -0.00000
 Mulliken charges with hydrogens summed into heavy atoms:
               1
     1  C    0.033230
     5  C    0.083654
     7  C   -0.054018
    10  C    0.098485
    11  C    0.158383
    13  O   -0.155538
    14  O   -0.021962
    15  O   -0.142234
 Electronic spatial extent (au):  <R**2>=           2107.2621
 Charge=              0.0000 electrons
 Dipole moment (field-independent basis, Debye):
    X=             -3.0623    Y=             -1.0653    Z=             -0.0462  Tot=              3.2426
 Quadrupole moment (field-independent basis, Debye-Ang):
   XX=            -38.3571   YY=            -48.8999   ZZ=            -47.4186
   XY=             -1.8870   XZ=             -5.8394   YZ=             -2.6147
 Traceless Quadrupole moment (field-independent basis, Debye-Ang):
   XX=              6.5348   YY=             -4.0080   ZZ=             -2.5268
   XY=             -1.8870   XZ=             -5.8394   YZ=             -2.6147
 Octapole moment (field-independent basis, Debye-Ang**2):
  XXX=            223.4332  YYY=            -48.9188  ZZZ=           -237.3709  XYY=             82.1349
  XXY=             -6.7088  XXZ=            -59.3586  XZZ=             71.6428  YZZ=            -23.7165
  YYZ=            -77.2091  XYZ=              2.3947
 Hexadecapole moment (field-independent basis, Debye-Ang**3):
 XXXX=          -1297.2412 YYYY=           -369.7390 ZZZZ=          -1039.0315 XXXY=            -13.4006
 XXXZ=            418.6161 YYYX=             -0.5919 YYYZ=            -52.4274 ZZZX=            466.8339
 ZZZY=            -84.2609 XXYY=           -289.6422 XXZZ=           -357.2031 YYZZ=           -219.1808
 XXYZ=            -25.3614 YYXZ=            155.0646 ZZXY=             25.9830
 N-N= 4.127885521698D+02 E-N=-1.810312346629D+03  KE= 4.189259222901D+02
 Calling FoFJK, ICntrl=      2127 FMM=F ISym2X=0 I1Cent= 0 IOpClX= 0 NMat=1 NMatS=1 NMatT=0.
 -------------------------------------------------------------------
 Center     Atomic                   Forces (Hartrees/Bohr)
 Number     Number              X              Y              Z
 -------------------------------------------------------------------
      1        6          -0.008147807    0.005058428    0.006728627
      2        1           0.003166891   -0.012545876    0.002989967
      3        1           0.003874150    0.000795902   -0.008858598
      4        1          -0.012100905   -0.002523862   -0.005453779
      5        6          -0.019743646    0.032041657   -0.009241663
      6        1           0.006353031   -0.006774023    0.003448235
      7        6           0.044570815   -0.014751164    0.004616943
      8        1          -0.006701451    0.005816748   -0.003169675
      9        1          -0.007109486   -0.002896984    0.001654228
     10        6          -0.049377108   -0.046150230    0.003849389
     11        6           0.001571960    0.007766619   -0.000953244
     12        1          -0.002979572    0.003950610    0.012663045
     13        8          -0.030812010    0.034703450   -0.003813453
     14        8           0.075112714   -0.003074421   -0.007032121
     15        8           0.004867080   -0.008684042    0.020171192
     16        1          -0.002544655    0.007267186   -0.017599093
 -------------------------------------------------------------------
 Cartesian Forces:  Max     0.075112714 RMS     0.019440940

 GradGradGradGradGradGradGradGradGradGradGradGradGradGradGradGradGradGrad
 Berny optimization.
 FormGI is forming the generalized inverse of G from B-inverse, IUseBI=4.
 Internal  Forces:  Max     0.046447908 RMS     0.012544845
 Search for a local minimum.
 Step number   1 out of a maximum of   89
 All quantities printed in internal units (Hartrees-Bohrs-Radians)
 Mixed Optimization -- RFO/linear search
 Second derivative matrix not updated -- first step.
 ITU=  0
     Eigenvalues ---    0.00237   0.00237   0.01130   0.01215   0.02681
     Eigenvalues ---    0.02681   0.03347   0.05051   0.05557   0.05720
     Eigenvalues ---    0.05720   0.06124   0.06388   0.09341   0.10413
     Eigenvalues ---    0.10760   0.13860   0.16000   0.16000   0.16000
     Eigenvalues ---    0.16000   0.16000   0.16000   0.18011   0.21867
     Eigenvalues ---    0.22000   0.28519   0.28519   0.30902   0.37230
     Eigenvalues ---    0.37230   0.37230   0.37230   0.37230   0.37230
     Eigenvalues ---    0.37230   0.37230   0.38644   0.44243   0.46853
     Eigenvalues ---    0.50538   0.53930
 RFO step:  Lambda=-4.66573069D-02 EMin= 2.36824169D-03
 Linear search not attempted -- first point.
 Maximum step size (   0.300) exceeded in Quadratic search.
    -- Step size scaled by   0.959
 Iteration  1 RMS(Cart)=  0.10396943 RMS(Int)=  0.00862597
 Iteration  2 RMS(Cart)=  0.00755539 RMS(Int)=  0.00118884
 Iteration  3 RMS(Cart)=  0.00008230 RMS(Int)=  0.00118535
 Iteration  4 RMS(Cart)=  0.00000018 RMS(Int)=  0.00118535
 Variable       Old X    -DE/DX   Delta X   Delta X   Delta X     New X
                                 (Linear)    (Quad)   (Total)
    R1        2.02201   0.01325   0.00000   0.03032   0.03032   2.05232
    R2        2.02201   0.00838   0.00000   0.01917   0.01917   2.04118
    R3        2.02201   0.01335   0.00000   0.03055   0.03055   2.05255
    R4        2.91018   0.00800   0.00000   0.02311   0.02311   2.93329
    R5        2.02201   0.00890   0.00000   0.02036   0.02036   2.04237
    R6        2.56096  -0.03289   0.00000  -0.05381  -0.05381   2.50714
    R7        2.91018  -0.01912   0.00000  -0.05524  -0.05524   2.85494
    R8        2.02201   0.00815   0.00000   0.01864   0.01864   2.04065
    R9        2.02201   0.00701   0.00000   0.01603   0.01603   2.03804
   R10        2.83082   0.02538   0.00000   0.05940   0.05933   2.89015
   R11        2.62406   0.03587   0.00000   0.07149   0.07131   2.69537
   R12        2.02201   0.01293   0.00000   0.02959   0.02959   2.05160
   R13        2.69829   0.01492   0.00000   0.02730   0.02749   2.72578
   R14        2.02201   0.01504   0.00000   0.03441   0.03441   2.05642
   R15        2.56020   0.04645   0.00000   0.07915   0.07932   2.63952
   R16        2.59926   0.03418   0.00000   0.05884   0.05874   2.65800
    A1        1.91063  -0.00184   0.00000  -0.00477  -0.00480   1.90583
    A2        1.91063  -0.00108   0.00000  -0.01230  -0.01241   1.89822
    A3        1.91063  -0.00164   0.00000  -0.00938  -0.00945   1.90118
    A4        1.91063  -0.00265   0.00000  -0.00878  -0.00893   1.90171
    A5        1.91063   0.00740   0.00000   0.03797   0.03788   1.94851
    A6        1.91063  -0.00018   0.00000  -0.00274  -0.00286   1.90777
    A7        2.09440  -0.00143   0.00000  -0.00073  -0.00084   2.09356
    A8        2.09440  -0.00984   0.00000  -0.03976  -0.03985   2.05454
    A9        2.09440   0.01126   0.00000   0.04049   0.04040   2.13479
   A10        2.09440   0.00435   0.00000   0.02018   0.02015   2.11454
   A11        2.09440   0.00076   0.00000   0.00353   0.00349   2.09789
   A12        2.09440  -0.00511   0.00000  -0.02370  -0.02373   2.07066
   A13        1.88832  -0.00919   0.00000  -0.02715  -0.02721   1.86111
   A14        1.92724   0.00411   0.00000   0.02128   0.02045   1.94769
   A15        1.87005   0.01162   0.00000   0.07472   0.07517   1.94521
   A16        1.97009   0.00919   0.00000   0.03448   0.03514   2.00524
   A17        2.02775  -0.00294   0.00000  -0.05440  -0.05366   1.97409
   A18        1.77618  -0.01188   0.00000  -0.04323  -0.04455   1.73163
   A19        1.99977  -0.00348   0.00000  -0.02526  -0.02309   1.97668
   A20        1.76035   0.01032   0.00000   0.04621   0.04320   1.80355
   A21        1.90585   0.00210   0.00000   0.03159   0.03109   1.93694
   A22        1.88195  -0.01119   0.00000  -0.05265  -0.05165   1.83030
   A23        1.89215   0.00313   0.00000   0.01667   0.01609   1.90824
   A24        2.02529  -0.00104   0.00000  -0.01880  -0.01940   2.00589
   A25        1.80060   0.01579   0.00000   0.07716   0.07367   1.87427
   A26        1.83175  -0.02263   0.00000  -0.04197  -0.04742   1.78434
   A27        1.64894   0.02523   0.00000   0.15312   0.15124   1.80018
    D1       -1.05874   0.00411   0.00000   0.02779   0.02790  -1.03084
    D2        3.06041  -0.00386   0.00000  -0.01082  -0.01079   3.04963
    D3        1.13992   0.00214   0.00000  -0.00842  -0.00862   1.13130
    D4        3.13005   0.00285   0.00000   0.01612   0.01628  -3.13686
    D5        0.96602  -0.00513   0.00000  -0.02249  -0.02241   0.94361
    D6       -0.95447   0.00088   0.00000  -0.02009  -0.02025  -0.97472
    D7        1.03565   0.00167   0.00000   0.00530   0.00542   1.04107
    D8       -1.12838  -0.00630   0.00000  -0.03331  -0.03327  -1.16164
    D9       -3.04887  -0.00029   0.00000  -0.03091  -0.03111  -3.07997
   D10       -3.14159   0.00016   0.00000   0.00469   0.00486  -3.13673
   D11        0.00000  -0.00098   0.00000  -0.01012  -0.00996  -0.00995
   D12        0.00000  -0.00147   0.00000  -0.02182  -0.02199  -0.02198
   D13       -3.14159  -0.00260   0.00000  -0.03663  -0.03680   3.10479
   D14        1.55908  -0.00057   0.00000  -0.01421  -0.01337   1.54571
   D15       -2.58603   0.00418   0.00000   0.01625   0.01622  -2.56980
   D16       -0.54385  -0.00669   0.00000  -0.05415  -0.05462  -0.59846
   D17       -1.58251   0.00106   0.00000   0.01230   0.01290  -1.56961
   D18        0.55556   0.00581   0.00000   0.04275   0.04250   0.59806
   D19        2.59775  -0.00506   0.00000  -0.02764  -0.02834   2.56941
   D20        2.79538  -0.00751   0.00000  -0.08600  -0.08522   2.71015
   D21       -1.47191  -0.01604   0.00000  -0.13141  -0.13089  -1.60280
   D22        0.66949  -0.01075   0.00000  -0.11399  -0.11335   0.55614
   D23        0.67924  -0.00500   0.00000  -0.09022  -0.09030   0.58894
   D24        2.69514  -0.01353   0.00000  -0.13563  -0.13596   2.55917
   D25       -1.44665  -0.00825   0.00000  -0.11820  -0.11842  -1.56507
   D26       -1.50670   0.00139   0.00000  -0.01433  -0.01451  -1.52121
   D27        0.50920  -0.00715   0.00000  -0.05974  -0.06017   0.44903
   D28        2.65060  -0.00186   0.00000  -0.04231  -0.04263   2.60797
   D29        1.12995   0.00692   0.00000   0.12276   0.12459   1.25454
   D30       -3.04054   0.00193   0.00000   0.10872   0.10866  -2.93188
   D31       -0.89342   0.00318   0.00000   0.08975   0.09427  -0.79915
   D32        0.10145  -0.00332   0.00000  -0.04652  -0.04902   0.05242
   D33        2.20346  -0.00684   0.00000  -0.07423  -0.07644   2.12703
   D34       -1.95455  -0.01211   0.00000  -0.10602  -0.10590  -2.06045
   D35       -0.70293   0.01889   0.00000   0.15819   0.15567  -0.54726
   D36        1.01820  -0.01818   0.00000  -0.15543  -0.15452   0.86368
         Item               Value     Threshold  Converged?
 Maximum Force            0.046448     0.000450     NO 
 RMS     Force            0.012545     0.000300     NO 
 Maximum Displacement     0.389331     0.001800     NO 
 RMS     Displacement     0.105106     0.001200     NO 
 Predicted change in Energy=-3.006581D-02
 GradGradGradGradGradGradGradGradGradGradGradGradGradGradGradGradGradGrad

                          Input orientation:                          
 ---------------------------------------------------------------------
 Center     Atomic      Atomic             Coordinates (Angstroms)
 Number     Number       Type             X           Y           Z
 ---------------------------------------------------------------------
      1          6           0       -1.702241   -0.826756    0.428584
      2          1           0       -1.399218   -1.835617    0.692907
      3          1           0       -1.009489   -0.426482   -0.297080
      4          1           0       -2.693724   -0.864303   -0.013352
      5          6           0       -2.736345   -0.620746    2.647271
      6          1           0       -2.364588   -1.382227    3.318103
      7          6           0       -4.027665   -0.316367    2.641211
      8          1           0       -4.420714    0.437976    1.975937
      9          1           0       -4.709912   -0.833065    3.297481
     10          6           0       -1.746651    0.039285    1.715989
     11          6           0       -2.041434    1.505906    1.397873
     12          1           0       -2.491661    2.042349    2.227439
     13          8           0       -0.728495    2.085016    1.251573
     14          8           0        0.201346    1.052443    1.393567
     15          8           0       -0.449546    0.186461    2.290680
     16          1           0       -2.681587    1.593587    0.522247
 ---------------------------------------------------------------------
                    Distance matrix (angstroms):
                    1          2          3          4          5
     1  C    0.000000
     2  H    1.086043   0.000000
     3  H    1.080145   1.765680   0.000000
     4  H    1.086165   1.765785   1.763189   0.000000
     5  C    2.456498   2.661457   3.418914   2.672088   0.000000
     6  H    3.016052   2.833576   3.977347   3.387502   1.080774
     7  C    3.250202   3.607318   4.213677   3.020984   1.326723
     8  H    3.374010   3.993097   4.189314   2.938656   2.099686
     9  H    4.156524   4.330082   5.174873   3.876546   2.088737
    10  C    1.552228   2.163946   2.193809   2.168880   1.510768
    11  C    2.548703   3.474938   2.769820   2.834596   2.562528
    12  H    3.477187   4.311245   3.829512   3.675677   2.707065
    13  O    3.178665   4.016633   2.963935   3.763063   3.646996
    14  O    2.843629   3.375444   2.551790   3.746300   3.605740
    15  O    2.462368   2.746553   2.717672   3.383637   2.451160
    16  H    2.612653   3.665110   2.747342   2.515599   3.069527
                    6          7          8          9         10
     6  H    0.000000
     7  C    2.088077   0.000000
     8  H    3.056502   1.079866   0.000000
     9  H    2.408848   1.078484   1.856249   0.000000
    10  C    2.229196   2.487077   2.716089   3.470306   0.000000
    11  C    3.483250   2.968448   2.671256   4.024931   1.529402
    12  H    3.596306   2.845005   2.521609   3.785978   2.197472
    13  O    4.355355   4.310714   4.107301   5.343464   2.331810
    14  O    4.026844   4.616795   4.698953   5.594683   2.219265
    15  O    2.680255   3.630240   3.991553   4.494863   1.426328
    16  H    4.095457   3.154340   2.544251   4.207691   2.171400
                   11         12         13         14         15
    11  C    0.000000
    12  H    1.085659   0.000000
    13  O    1.442421   2.015661   0.000000
    14  O    2.288167   2.987900   1.396773   0.000000
    15  O    2.252142   2.760172   2.182215   1.406555   0.000000
    16  H    1.088212   1.773454   2.141958   3.059957   3.176375
                   16
    16  H    0.000000
 Symmetry turned off by external request.
 Stoichiometry    C5H8O3
 Framework group  C1[X(C5H8O3)]
 Deg. of freedom    42
 Full point group                 C1      NOp   1
 Rotational constants (GHZ):           3.8606215           1.6512302           1.5147249
 Standard basis: CC-pVTZ (5D, 7F)
   352 basis functions,   552 primitive gaussians,   400 cartesian basis functions
    31 alpha electrons       31 beta electrons
       nuclear repulsion energy       404.2527811852 Hartrees.
 NAtoms=   16 NActive=   16 NUniq=   16 SFac= 1.00D+00 NAtFMM=   60 NAOKFM=F Big=F
 Integral buffers will be    131072 words long.
 Raffenetti 2 integral format.
 Two-electron integral symmetry is turned off.
 Nuclear repulsion after empirical dispersion term =      404.2524221740 Hartrees.
 One-electron integrals computed using PRISM.
 NBasis=   352 RedAO= T EigKep=  2.79D-04  NBF=   352
 NBsUse=   352 1.00D-06 EigRej= -1.00D+00 NBFU=   352
 Initial guess from the checkpoint file:  "POZ1.chk"
 B after Tr=     0.108906    0.101637    0.118840
         Rot=    0.999913   -0.006205    0.011379   -0.002530 Ang=  -1.51 deg.
 ExpMin= 1.03D-01 ExpMax= 1.53D+04 ExpMxC= 5.22D+02 IAcc=2 IRadAn=         4 AccDes= 0.00D+00
 Harris functional with IExCor= 1009 and IRadAn=       4 diagonalized for initial guess.
 HarFok:  IExCor= 1009 AccDes= 0.00D+00 IRadAn=         4 IDoV= 1 UseB2=F ITyADJ=14
 ICtDFT=  3500011 ScaDFX=  1.000000  1.000000  1.000000  1.000000
 FoFCou: FMM=F IPFlag=           0 FMFlag=      100000 FMFlg1=           0
         NFxFlg=           0 DoJE=T BraDBF=F KetDBF=T FulRan=T
         wScrn=  0.000000 ICntrl=       500 IOpCl=  0 I1Cent=   200000004 NGrid=           0
         NMat0=    1 NMatS0=      1 NMatT0=    0 NMatD0=    1 NMtDS0=    0 NMtDT0=    0
 Symmetry not used in FoFCou.
 Requested convergence on RMS density matrix=1.00D-08 within 128 cycles.
 Requested convergence on MAX density matrix=1.00D-06.
 Requested convergence on             energy=1.00D-06.
 No special actions if energy rises.
 Integral accuracy reduced to 1.0D-05 until final iterations.
 Initial convergence to 1.0D-05 achieved.  Increase integral accuracy.
 SCF Done:  E(RM062X) =  -420.782278397     A.U. after   13 cycles
            NFock= 13  Conv=0.93D-08     -V/T= 2.0055
 Calling FoFJK, ICntrl=      2127 FMM=F ISym2X=0 I1Cent= 0 IOpClX= 0 NMat=1 NMatS=1 NMatT=0.
 -------------------------------------------------------------------
 Center     Atomic                   Forces (Hartrees/Bohr)
 Number     Number              X              Y              Z
 -------------------------------------------------------------------
      1        6           0.001882574    0.005515152    0.009735574
      2        1           0.000519981   -0.002017300    0.000028361
      3        1           0.004769376    0.003237167   -0.002488407
      4        1          -0.001758015    0.000062727    0.000122530
      5        6           0.003837486    0.013077036    0.006035671
      6        1           0.003444569   -0.001691201   -0.000631069
      7        6           0.008990016   -0.003594710    0.001198802
      8        1          -0.002901472    0.001741535    0.000137269
      9        1          -0.002690084   -0.000038321   -0.000885516
     10        6          -0.005005826   -0.006798847   -0.016372548
     11        6           0.007282371    0.002791707    0.003719053
     12        1          -0.003389111   -0.003227790    0.003021527
     13        8          -0.019305373    0.018670486   -0.009978958
     14        8          -0.005139902   -0.017279639    0.002895503
     15        8           0.002761650   -0.014761663    0.009722055
     16        1           0.006701760    0.004313660   -0.006259848
 -------------------------------------------------------------------
 Cartesian Forces:  Max     0.019305373 RMS     0.007288143

 GradGradGradGradGradGradGradGradGradGradGradGradGradGradGradGradGradGrad
 Berny optimization.
 Using GEDIIS/GDIIS optimizer.
 FormGI is forming the generalized inverse of G from B-inverse, IUseBI=4.
 Internal  Forces:  Max     0.017715358 RMS     0.005140123
 Search for a local minimum.
 Step number   2 out of a maximum of   89
 All quantities printed in internal units (Hartrees-Bohrs-Radians)
 Mixed Optimization -- RFO/linear search
 Update second derivatives using D2CorX and points    1    2
 DE= -1.89D-02 DEPred=-3.01D-02 R= 6.29D-01
 TightC=F SS=  1.41D+00  RLast= 5.35D-01 DXNew= 5.0454D-01 1.6065D+00
 Trust test= 6.29D-01 RLast= 5.35D-01 DXMaxT set to 5.05D-01
 ITU=  1  0
 Use linear search instead of GDIIS.
     Eigenvalues ---    0.00237   0.00237   0.01136   0.01242   0.02679
     Eigenvalues ---    0.02682   0.03607   0.04713   0.05338   0.05475
     Eigenvalues ---    0.05794   0.05994   0.06694   0.09068   0.10599
     Eigenvalues ---    0.11027   0.14230   0.15784   0.15998   0.16000
     Eigenvalues ---    0.16000   0.16000   0.16075   0.20045   0.21606
     Eigenvalues ---    0.26964   0.27544   0.30024   0.31521   0.35756
     Eigenvalues ---    0.37230   0.37230   0.37230   0.37230   0.37230
     Eigenvalues ---    0.37230   0.37378   0.38919   0.44258   0.46701
     Eigenvalues ---    0.50603   0.53937
 RFO step:  Lambda=-9.28233529D-03 EMin= 2.36759981D-03
 Quartic linear search produced a step of -0.04435.
 Iteration  1 RMS(Cart)=  0.05870932 RMS(Int)=  0.00190151
 Iteration  2 RMS(Cart)=  0.00234074 RMS(Int)=  0.00033400
 Iteration  3 RMS(Cart)=  0.00000196 RMS(Int)=  0.00033399
 Iteration  4 RMS(Cart)=  0.00000000 RMS(Int)=  0.00033399
 Variable       Old X    -DE/DX   Delta X   Delta X   Delta X     New X
                                 (Linear)    (Quad)   (Total)
    R1        2.05232   0.00203  -0.00134   0.01131   0.00997   2.06229
    R2        2.04118   0.00593  -0.00085   0.01860   0.01775   2.05892
    R3        2.05255   0.00155  -0.00135   0.01020   0.00884   2.06140
    R4        2.93329  -0.00977  -0.00102  -0.02637  -0.02740   2.90589
    R5        2.04237   0.00198  -0.00090   0.00913   0.00823   2.05059
    R6        2.50714  -0.00374   0.00239  -0.01769  -0.01530   2.49184
    R7        2.85494  -0.00754   0.00245  -0.03551  -0.03306   2.82188
    R8        2.04065   0.00219  -0.00083   0.00928   0.00845   2.04910
    R9        2.03804   0.00118  -0.00071   0.00625   0.00554   2.04358
   R10        2.89015   0.00519  -0.00263   0.02540   0.02275   2.91291
   R11        2.69537  -0.00532  -0.00316   0.00418   0.00099   2.69636
   R12        2.05160   0.00212  -0.00131   0.01139   0.01008   2.06167
   R13        2.72578  -0.01263  -0.00122  -0.02151  -0.02282   2.70297
   R14        2.05642   0.00144  -0.00153   0.01073   0.00920   2.06562
   R15        2.63952   0.01772  -0.00352   0.04816   0.04459   2.68411
   R16        2.65800  -0.00196  -0.00260   0.00815   0.00572   2.66372
    A1        1.90583   0.00052   0.00021   0.00025   0.00048   1.90631
    A2        1.89822  -0.00002   0.00055  -0.00052   0.00004   1.89826
    A3        1.90118   0.00126   0.00042   0.00526   0.00569   1.90687
    A4        1.90171   0.00171   0.00040   0.00722   0.00760   1.90931
    A5        1.94851  -0.00280  -0.00168  -0.00883  -0.01051   1.93800
    A6        1.90777  -0.00062   0.00013  -0.00322  -0.00310   1.90467
    A7        2.09356   0.00125   0.00004   0.00928   0.00905   2.10261
    A8        2.05454  -0.00530   0.00177  -0.03492  -0.03338   2.02116
    A9        2.13479   0.00403  -0.00179   0.02465   0.02262   2.15741
   A10        2.11454   0.00173  -0.00089   0.01372   0.01282   2.12736
   A11        2.09789   0.00152  -0.00015   0.00910   0.00895   2.10684
   A12        2.07066  -0.00325   0.00105  -0.02291  -0.02186   2.04880
   A13        1.86111   0.01031   0.00121   0.05031   0.05080   1.91191
   A14        1.94769  -0.00560  -0.00091   0.00353   0.00188   1.94957
   A15        1.94521  -0.00367  -0.00333  -0.01087  -0.01393   1.93128
   A16        2.00524  -0.00201  -0.00156   0.01266   0.01012   2.01535
   A17        1.97409  -0.00894   0.00238  -0.08509  -0.08220   1.89189
   A18        1.73163   0.00871   0.00198   0.02370   0.02585   1.75748
   A19        1.97668  -0.00432   0.00102  -0.02778  -0.02678   1.94990
   A20        1.80355   0.00321  -0.00192   0.01249   0.01080   1.81435
   A21        1.93694   0.00343  -0.00138   0.03294   0.03145   1.96839
   A22        1.83030   0.00335   0.00229   0.02632   0.02864   1.85894
   A23        1.90824   0.00190  -0.00071   0.02401   0.02358   1.93181
   A24        2.00589  -0.00801   0.00086  -0.07302  -0.07173   1.93415
   A25        1.87427  -0.01243  -0.00327  -0.02997  -0.03304   1.84123
   A26        1.78434   0.01249   0.00210   0.03844   0.04091   1.82525
   A27        1.80018  -0.01459  -0.00671  -0.03277  -0.03952   1.76066
    D1       -1.03084   0.00237  -0.00124   0.04854   0.04758  -0.98326
    D2        3.04963   0.00129   0.00048  -0.00544  -0.00521   3.04442
    D3        1.13130  -0.00407   0.00038  -0.03005  -0.02970   1.10160
    D4       -3.13686   0.00266  -0.00072   0.05034   0.04990  -3.08696
    D5        0.94361   0.00157   0.00099  -0.00365  -0.00289   0.94072
    D6       -0.97472  -0.00379   0.00090  -0.02826  -0.02738  -1.00210
    D7        1.04107   0.00272  -0.00024   0.04912   0.04915   1.09022
    D8       -1.16164   0.00164   0.00148  -0.00487  -0.00364  -1.16528
    D9       -3.07997  -0.00372   0.00138  -0.02947  -0.02813  -3.10810
   D10       -3.13673  -0.00027  -0.00022   0.00112   0.00117  -3.13556
   D11       -0.00995  -0.00044   0.00044  -0.00599  -0.00528  -0.01523
   D12       -0.02198  -0.00125   0.00098  -0.04358  -0.04287  -0.06486
   D13        3.10479  -0.00142   0.00163  -0.05069  -0.04932   3.05547
   D14        1.54571  -0.00161   0.00059  -0.08266  -0.08266   1.46304
   D15       -2.56980  -0.00234  -0.00072  -0.03109  -0.03137  -2.60117
   D16       -0.59846   0.00142   0.00242  -0.05055  -0.04741  -0.64587
   D17       -1.56961  -0.00074  -0.00057  -0.03954  -0.04108  -1.61069
   D18        0.59806  -0.00146  -0.00188   0.01203   0.01022   0.60828
   D19        2.56941   0.00229   0.00126  -0.00742  -0.00583   2.56358
   D20        2.71015   0.00158   0.00378  -0.03064  -0.02713   2.68302
   D21       -1.60280   0.00543   0.00580  -0.00487   0.00048  -1.60232
   D22        0.55614  -0.00034   0.00503  -0.06694  -0.06226   0.49388
   D23        0.58894  -0.00625   0.00400  -0.10996  -0.10580   0.48314
   D24        2.55917  -0.00240   0.00603  -0.08419  -0.07819   2.48098
   D25       -1.56507  -0.00817   0.00525  -0.14625  -0.14093  -1.70600
   D26       -1.52121  -0.00017   0.00064  -0.02911  -0.02846  -1.54966
   D27        0.44903   0.00368   0.00267  -0.00335  -0.00085   0.44818
   D28        2.60797  -0.00209   0.00189  -0.06541  -0.06359   2.54438
   D29        1.25454  -0.00195  -0.00553   0.03492   0.02825   1.28279
   D30       -2.93188   0.00247  -0.00482   0.03245   0.02836  -2.90352
   D31       -0.79915   0.00127  -0.00418   0.02259   0.01804  -0.78112
   D32        0.05242  -0.00013   0.00217   0.00300   0.00494   0.05736
   D33        2.12703  -0.00216   0.00339  -0.01160  -0.00800   2.11902
   D34       -2.06045  -0.00210   0.00470  -0.00560  -0.00138  -2.06184
   D35       -0.54726  -0.00478  -0.00690  -0.00594  -0.01264  -0.55990
   D36        0.86368   0.00164   0.00685  -0.01115  -0.00408   0.85959
         Item               Value     Threshold  Converged?
 Maximum Force            0.017715     0.000450     NO 
 RMS     Force            0.005140     0.000300     NO 
 Maximum Displacement     0.193551     0.001800     NO 
 RMS     Displacement     0.058414     0.001200     NO 
 Predicted change in Energy=-5.396833D-03
 GradGradGradGradGradGradGradGradGradGradGradGradGradGradGradGradGradGrad

                          Input orientation:                          
 ---------------------------------------------------------------------
 Center     Atomic      Atomic             Coordinates (Angstroms)
 Number     Number       Type             X           Y           Z
 ---------------------------------------------------------------------
      1          6           0       -1.687603   -0.825547    0.413769
      2          1           0       -1.397302   -1.842238    0.684027
      3          1           0       -0.955093   -0.416032   -0.281079
      4          1           0       -2.665959   -0.856271   -0.067703
      5          6           0       -2.734300   -0.600237    2.646368
      6          1           0       -2.323876   -1.384161    3.274473
      7          6           0       -4.018204   -0.304345    2.699398
      8          1           0       -4.453575    0.470609    2.078359
      9          1           0       -4.683185   -0.846390    3.357764
     10          6           0       -1.779456    0.031133    1.687454
     11          6           0       -2.051524    1.512530    1.359602
     12          1           0       -2.558980    2.021159    2.180606
     13          8           0       -0.746509    2.090811    1.267832
     14          8           0        0.159992    1.011694    1.444511
     15          8           0       -0.504598    0.129840    2.320621
     16          1           0       -2.601753    1.644906    0.424427
 ---------------------------------------------------------------------
                    Distance matrix (angstroms):
                    1          2          3          4          5
     1  C    0.000000
     2  H    1.091318   0.000000
     3  H    1.089536   1.777932   0.000000
     4  H    1.090844   1.773900   1.779439   0.000000
     5  C    2.476052   2.679723   3.430664   2.726977   0.000000
     6  H    2.983374   2.789048   3.931004   3.400858   1.085128
     7  C    3.305669   3.646363   4.275321   3.128904   1.318625
     8  H    3.478719   4.078509   4.311897   3.092211   2.103628
     9  H    4.200125   4.351737   5.227338   3.975315   2.089217
    10  C    1.537729   2.159265   2.180517   2.157302   1.493275
    11  C    2.548263   3.484090   2.759229   2.833011   2.566269
    12  H    3.461899   4.302915   3.817361   3.653210   2.668218
    13  O    3.181230   4.029049   2.954131   3.762078   3.618482
    14  O    2.802052   3.338927   2.501895   3.709729   3.524161
    15  O    2.438924   2.713753   2.696250   3.368678   2.368691
    16  H    2.634184   3.698414   2.730694   2.549941   3.161527
                    6          7          8          9         10
     6  H    0.000000
     7  C    2.089847   0.000000
     8  H    3.066999   1.084339   0.000000
     9  H    2.421255   1.081415   1.850429   0.000000
    10  C    2.195012   2.479631   2.738039   3.462893   0.000000
    11  C    3.483064   2.993981   2.715154   4.059902   1.541444
    12  H    3.584414   2.794003   2.450336   3.757764   2.193413
    13  O    4.311627   4.300017   4.126057   5.337826   2.342080
    14  O    3.906211   4.556756   4.688234   5.528959   2.186775
    15  O    2.551824   3.560536   3.971049   4.414667   1.426852
    16  H    4.168360   3.313820   2.746581   4.375315   2.208093
                   11         12         13         14         15
    11  C    0.000000
    12  H    1.090991   0.000000
    13  O    1.430348   2.030532   0.000000
    14  O    2.269108   2.992267   1.420371   0.000000
    15  O    2.286563   2.795921   2.238815   1.409580   0.000000
    16  H    1.093081   1.796541   2.086167   3.011439   3.207652
                   16
    16  H    0.000000
 Symmetry turned off by external request.
 Stoichiometry    C5H8O3
 Framework group  C1[X(C5H8O3)]
 Deg. of freedom    42
 Full point group                 C1      NOp   1
 Rotational constants (GHZ):           3.7593682           1.6789918           1.5380176
 Standard basis: CC-pVTZ (5D, 7F)
   352 basis functions,   552 primitive gaussians,   400 cartesian basis functions
    31 alpha electrons       31 beta electrons
       nuclear repulsion energy       404.6154568812 Hartrees.
 NAtoms=   16 NActive=   16 NUniq=   16 SFac= 1.00D+00 NAtFMM=   60 NAOKFM=F Big=F
 Integral buffers will be    131072 words long.
 Raffenetti 2 integral format.
 Two-electron integral symmetry is turned off.
 Nuclear repulsion after empirical dispersion term =      404.6150978197 Hartrees.
 One-electron integrals computed using PRISM.
 NBasis=   352 RedAO= T EigKep=  2.68D-04  NBF=   352
 NBsUse=   352 1.00D-06 EigRej= -1.00D+00 NBFU=   352
 Initial guess from the checkpoint file:  "POZ1.chk"
 B after Tr=    -0.020510   -0.024014    0.025600
         Rot=    0.999996   -0.000719    0.001532    0.002216 Ang=  -0.32 deg.
 ExpMin= 1.03D-01 ExpMax= 1.53D+04 ExpMxC= 5.22D+02 IAcc=2 IRadAn=         4 AccDes= 0.00D+00
 Harris functional with IExCor= 1009 and IRadAn=       4 diagonalized for initial guess.
 HarFok:  IExCor= 1009 AccDes= 0.00D+00 IRadAn=         4 IDoV= 1 UseB2=F ITyADJ=14
 ICtDFT=  3500011 ScaDFX=  1.000000  1.000000  1.000000  1.000000
 FoFCou: FMM=F IPFlag=           0 FMFlag=      100000 FMFlg1=           0
         NFxFlg=           0 DoJE=T BraDBF=F KetDBF=T FulRan=T
         wScrn=  0.000000 ICntrl=       500 IOpCl=  0 I1Cent=   200000004 NGrid=           0
         NMat0=    1 NMatS0=      1 NMatT0=    0 NMatD0=    1 NMtDS0=    0 NMtDT0=    0
 Symmetry not used in FoFCou.
 Requested convergence on RMS density matrix=1.00D-08 within 128 cycles.
 Requested convergence on MAX density matrix=1.00D-06.
 Requested convergence on             energy=1.00D-06.
 No special actions if energy rises.
 Integral accuracy reduced to 1.0D-05 until final iterations.
 Initial convergence to 1.0D-05 achieved.  Increase integral accuracy.
 SCF Done:  E(RM062X) =  -420.787468009     A.U. after   13 cycles
            NFock= 13  Conv=0.49D-08     -V/T= 2.0056
 Calling FoFJK, ICntrl=      2127 FMM=F ISym2X=0 I1Cent= 0 IOpClX= 0 NMat=1 NMatS=1 NMatT=0.
 -------------------------------------------------------------------
 Center     Atomic                   Forces (Hartrees/Bohr)
 Number     Number              X              Y              Z
 -------------------------------------------------------------------
      1        6           0.000379437    0.001382641    0.003243803
      2        1          -0.000440589    0.001201173   -0.000817751
      3        1          -0.000339645    0.000307330    0.001249993
      4        1           0.001159756   -0.000130901    0.000327476
      5        6           0.002705498    0.000604410    0.003554201
      6        1           0.000784698    0.000119967   -0.001315211
      7        6          -0.004324471   -0.000429410    0.001271300
      8        1          -0.000277900   -0.000555783    0.000533690
      9        1          -0.000515934    0.001432500   -0.000181401
     10        6          -0.001138110   -0.003024070   -0.008545789
     11        6           0.002824981    0.002728892    0.002669045
     12        1          -0.001575574   -0.002376216   -0.001235952
     13        8          -0.006975758   -0.000080945    0.001108406
     14        8           0.006169179   -0.006962944    0.002069658
     15        8          -0.000990524    0.006669349   -0.004747400
     16        1           0.002554954   -0.000885992    0.000815932
 -------------------------------------------------------------------
 Cartesian Forces:  Max     0.008545789 RMS     0.002874832

 GradGradGradGradGradGradGradGradGradGradGradGradGradGradGradGradGradGrad
 Berny optimization.
 Using GEDIIS/GDIIS optimizer.
 FormGI is forming the generalized inverse of G from B-inverse, IUseBI=4.
 Internal  Forces:  Max     0.005148176 RMS     0.001729578
 Search for a local minimum.
 Step number   3 out of a maximum of   89
 All quantities printed in internal units (Hartrees-Bohrs-Radians)
 Mixed Optimization -- RFO/linear search
 Update second derivatives using D2CorX and points    2    3
 DE= -5.19D-03 DEPred=-5.40D-03 R= 9.62D-01
 TightC=F SS=  1.41D+00  RLast= 3.26D-01 DXNew= 8.4853D-01 9.7795D-01
 Trust test= 9.62D-01 RLast= 3.26D-01 DXMaxT set to 8.49D-01
 ITU=  1  1  0
 Use linear search instead of GDIIS.
     Eigenvalues ---    0.00237   0.00237   0.01114   0.01294   0.02680
     Eigenvalues ---    0.02708   0.03694   0.04101   0.05304   0.05539
     Eigenvalues ---    0.05787   0.06146   0.06840   0.09280   0.10660
     Eigenvalues ---    0.11276   0.14603   0.15503   0.15989   0.16000
     Eigenvalues ---    0.16000   0.16015   0.16082   0.19553   0.21382
     Eigenvalues ---    0.27436   0.28677   0.30916   0.33742   0.36364
     Eigenvalues ---    0.37230   0.37230   0.37230   0.37230   0.37230
     Eigenvalues ---    0.37240   0.37419   0.38927   0.43756   0.47059
     Eigenvalues ---    0.48442   0.54207
 RFO step:  Lambda=-1.72762022D-03 EMin= 2.36559058D-03
 Quartic linear search produced a step of  0.08834.
 Iteration  1 RMS(Cart)=  0.06179461 RMS(Int)=  0.00160610
 Iteration  2 RMS(Cart)=  0.00215311 RMS(Int)=  0.00012704
 Iteration  3 RMS(Cart)=  0.00000188 RMS(Int)=  0.00012703
 Iteration  4 RMS(Cart)=  0.00000000 RMS(Int)=  0.00012703
 Variable       Old X    -DE/DX   Delta X   Delta X   Delta X     New X
                                 (Linear)    (Quad)   (Total)
    R1        2.06229  -0.00144   0.00088  -0.00343  -0.00255   2.05974
    R2        2.05892  -0.00091   0.00157  -0.00157  -0.00000   2.05892
    R3        2.06140  -0.00118   0.00078  -0.00274  -0.00196   2.05944
    R4        2.90589  -0.00481  -0.00242  -0.01935  -0.02177   2.88412
    R5        2.05059  -0.00055   0.00073  -0.00102  -0.00030   2.05030
    R6        2.49184   0.00515  -0.00135   0.00907   0.00772   2.49956
    R7        2.82188   0.00303  -0.00292   0.00933   0.00641   2.82829
    R8        2.04910  -0.00059   0.00075  -0.00114  -0.00039   2.04871
    R9        2.04358  -0.00051   0.00049  -0.00108  -0.00059   2.04299
   R10        2.91291  -0.00366   0.00201  -0.00868  -0.00666   2.90625
   R11        2.69636  -0.00073   0.00009   0.00006   0.00021   2.69657
   R12        2.06167  -0.00130   0.00089  -0.00304  -0.00215   2.05953
   R13        2.70297  -0.00278  -0.00202  -0.00738  -0.00947   2.69350
   R14        2.06562  -0.00209   0.00081  -0.00532  -0.00451   2.06111
   R15        2.68411   0.00481   0.00394   0.01191   0.01580   2.69991
   R16        2.66372  -0.00394   0.00051  -0.01022  -0.00968   2.65404
    A1        1.90631   0.00023   0.00004   0.00020   0.00027   1.90657
    A2        1.89826  -0.00042   0.00000   0.00003  -0.00000   1.89826
    A3        1.90687   0.00092   0.00050   0.00706   0.00755   1.91442
    A4        1.90931   0.00040   0.00067   0.00155   0.00222   1.91153
    A5        1.93800  -0.00167  -0.00093  -0.01286  -0.01378   1.92421
    A6        1.90467   0.00057  -0.00027   0.00426   0.00396   1.90863
    A7        2.10261   0.00003   0.00080   0.00337   0.00413   2.10674
    A8        2.02116  -0.00256  -0.00295  -0.01640  -0.01940   2.00177
    A9        2.15741   0.00254   0.00200   0.01397   0.01593   2.17333
   A10        2.12736  -0.00008   0.00113   0.00032   0.00139   2.12875
   A11        2.10684   0.00132   0.00079   0.00941   0.01013   2.11696
   A12        2.04880  -0.00124  -0.00193  -0.00932  -0.01133   2.03748
   A13        1.91191   0.00211   0.00449   0.02697   0.03131   1.94321
   A14        1.94957   0.00062   0.00017   0.00487   0.00477   1.95434
   A15        1.93128  -0.00085  -0.00123  -0.00458  -0.00557   1.92571
   A16        2.01535  -0.00140   0.00089  -0.00146  -0.00122   2.01413
   A17        1.89189  -0.00028  -0.00726  -0.01979  -0.02696   1.86493
   A18        1.75748  -0.00053   0.00228  -0.01107  -0.00889   1.74858
   A19        1.94990  -0.00121  -0.00237  -0.01128  -0.01377   1.93612
   A20        1.81435  -0.00038   0.00095   0.00353   0.00435   1.81870
   A21        1.96839  -0.00037   0.00278  -0.00729  -0.00452   1.96387
   A22        1.85894   0.00125   0.00253   0.02618   0.02882   1.88776
   A23        1.93181   0.00054   0.00208   0.00411   0.00621   1.93802
   A24        1.93415   0.00022  -0.00634  -0.01367  -0.01992   1.91423
   A25        1.84123   0.00219  -0.00292   0.00685   0.00371   1.84494
   A26        1.82525  -0.00485   0.00361  -0.02925  -0.02560   1.79964
   A27        1.76066   0.00320  -0.00349   0.01830   0.01478   1.77545
    D1       -0.98326  -0.00019   0.00420   0.01699   0.02131  -0.96196
    D2        3.04442  -0.00051  -0.00046  -0.00655  -0.00716   3.03725
    D3        1.10160   0.00027  -0.00262   0.00678   0.00416   1.10575
    D4       -3.08696  -0.00002   0.00441   0.02027   0.02481  -3.06215
    D5        0.94072  -0.00034  -0.00026  -0.00327  -0.00366   0.93706
    D6       -1.00210   0.00044  -0.00242   0.01006   0.00766  -0.99444
    D7        1.09022   0.00017   0.00434   0.02369   0.02817   1.11839
    D8       -1.16528  -0.00015  -0.00032   0.00015  -0.00030  -1.16559
    D9       -3.10810   0.00063  -0.00248   0.01348   0.01101  -3.09709
   D10       -3.13556  -0.00005   0.00010  -0.00731  -0.00723   3.14039
   D11       -0.01523   0.00056  -0.00047   0.01594   0.01545   0.00022
   D12       -0.06486   0.00011  -0.00379   0.00860   0.00483  -0.06003
   D13        3.05547   0.00072  -0.00436   0.03185   0.02751   3.08299
   D14        1.46304  -0.00071  -0.00730  -0.08455  -0.09211   1.37093
   D15       -2.60117   0.00084  -0.00277  -0.05569  -0.05842  -2.65959
   D16       -0.64587  -0.00077  -0.00419  -0.08302  -0.08704  -0.73292
   D17       -1.61069  -0.00095  -0.00363  -0.10045  -0.10431  -1.71500
   D18        0.60828   0.00060   0.00090  -0.07159  -0.07062   0.53767
   D19        2.56358  -0.00101  -0.00051  -0.09892  -0.09924   2.46434
   D20        2.68302  -0.00036  -0.00240  -0.04197  -0.04441   2.63861
   D21       -1.60232   0.00034   0.00004  -0.01457  -0.01470  -1.61702
   D22        0.49388   0.00017  -0.00550  -0.03272  -0.03834   0.45554
   D23        0.48314  -0.00266  -0.00935  -0.08250  -0.09172   0.39142
   D24        2.48098  -0.00196  -0.00691  -0.05510  -0.06201   2.41897
   D25       -1.70600  -0.00213  -0.01245  -0.07325  -0.08565  -1.79166
   D26       -1.54966  -0.00136  -0.00251  -0.05127  -0.05371  -1.60338
   D27        0.44818  -0.00066  -0.00007  -0.02387  -0.02400   0.42418
   D28        2.54438  -0.00083  -0.00562  -0.04202  -0.04764   2.49674
   D29        1.28279  -0.00203   0.00250  -0.00776  -0.00550   1.27728
   D30       -2.90352  -0.00013   0.00251   0.01013   0.01262  -2.89091
   D31       -0.78112  -0.00211   0.00159  -0.00558  -0.00403  -0.78514
   D32        0.05736   0.00018   0.00044   0.03063   0.03111   0.08847
   D33        2.11902  -0.00081  -0.00071   0.03103   0.03052   2.14954
   D34       -2.06184   0.00073  -0.00012   0.04436   0.04419  -2.01765
   D35       -0.55990   0.00051  -0.00112  -0.02558  -0.02647  -0.58637
   D36        0.85959  -0.00061  -0.00036   0.01653   0.01607   0.87566
         Item               Value     Threshold  Converged?
 Maximum Force            0.005148     0.000450     NO 
 RMS     Force            0.001730     0.000300     NO 
 Maximum Displacement     0.227970     0.001800     NO 
 RMS     Displacement     0.061647     0.001200     NO 
 Predicted change in Energy=-9.720805D-04
 GradGradGradGradGradGradGradGradGradGradGradGradGradGradGradGradGradGrad

                          Input orientation:                          
 ---------------------------------------------------------------------
 Center     Atomic      Atomic             Coordinates (Angstroms)
 Number     Number       Type             X           Y           Z
 ---------------------------------------------------------------------
      1          6           0       -1.657520   -0.828933    0.393473
      2          1           0       -1.363909   -1.843874    0.661280
      3          1           0       -0.903414   -0.398975   -0.264970
      4          1           0       -2.615235   -0.866419   -0.125239
      5          6           0       -2.749399   -0.612179    2.627856
      6          1           0       -2.333653   -1.433279    3.202410
      7          6           0       -4.019814   -0.269168    2.761843
      8          1           0       -4.456087    0.548272    2.198996
      9          1           0       -4.674368   -0.794295    3.443451
     10          6           0       -1.799180    0.015622    1.656793
     11          6           0       -2.068257    1.494800    1.333021
     12          1           0       -2.645577    1.968365    2.126885
     13          8           0       -0.772946    2.089148    1.310577
     14          8           0        0.150058    1.011483    1.477826
     15          8           0       -0.541736    0.127589    2.322016
     16          1           0       -2.550888    1.629301    0.364213
 ---------------------------------------------------------------------
                    Distance matrix (angstroms):
                    1          2          3          4          5
     1  C    0.000000
     2  H    1.089969   0.000000
     3  H    1.089535   1.776999   0.000000
     4  H    1.089809   1.771961   1.779988   0.000000
     5  C    2.496327   2.702605   3.438249   2.768062   0.000000
     6  H    2.951697   2.750697   3.890770   3.387309   1.084971
     7  C    3.391600   3.734420   4.346308   3.265700   1.322711
     8  H    3.603968   4.201012   4.426047   3.285142   2.107926
     9  H    4.290097   4.449857   5.303654   4.120773   2.098539
    10  C    1.526211   2.153656   2.160430   2.149321   1.496667
    11  C    2.539920   3.477655   2.738031   2.828615   2.565134
    12  H    3.435965   4.280635   3.789512   3.620633   2.630771
    13  O    3.184141   4.029825   2.947902   3.767091   3.597049
    14  O    2.798266   3.333453   2.477202   3.707179   3.516489
    15  O    2.424704   2.705675   2.664691   3.358051   2.348312
    16  H    2.615699   3.682406   2.687740   2.544076   3.191820
                    6          7          8          9         10
     6  H    0.000000
     7  C    2.095804   0.000000
     8  H    3.072151   1.084131   0.000000
     9  H    2.438308   1.081104   1.843583   0.000000
    10  C    2.184927   2.496689   2.763486   3.480634   0.000000
    11  C    3.484064   2.993609   2.710639   4.060257   1.537920
    12  H    3.581234   2.701528   2.302132   3.671733   2.179583
    13  O    4.292125   4.267316   4.090125   5.299480   2.339345
    14  O    3.888428   4.547153   4.685213   5.513583   2.196201
    15  O    2.534239   3.528157   3.938814   4.380198   1.426963
    16  H    4.181142   3.392722   2.857418   4.456982   2.199952
                   11         12         13         14         15
    11  C    0.000000
    12  H    1.089855   0.000000
    13  O    1.425336   2.046386   0.000000
    14  O    2.274969   3.025306   1.428730   0.000000
    15  O    2.275444   2.802264   2.219050   1.404459   0.000000
    16  H    1.090693   1.797483   2.065949   2.986125   3.181953
                   16
    16  H    0.000000
 Symmetry turned off by external request.
 Stoichiometry    C5H8O3
 Framework group  C1[X(C5H8O3)]
 Deg. of freedom    42
 Full point group                 C1      NOp   1
 Rotational constants (GHZ):           3.6993042           1.6944760           1.5435278
 Standard basis: CC-pVTZ (5D, 7F)
   352 basis functions,   552 primitive gaussians,   400 cartesian basis functions
    31 alpha electrons       31 beta electrons
       nuclear repulsion energy       404.9506038835 Hartrees.
 NAtoms=   16 NActive=   16 NUniq=   16 SFac= 1.00D+00 NAtFMM=   60 NAOKFM=F Big=F
 Integral buffers will be    131072 words long.
 Raffenetti 2 integral format.
 Two-electron integral symmetry is turned off.
 Nuclear repulsion after empirical dispersion term =      404.9502443358 Hartrees.
 One-electron integrals computed using PRISM.
 NBasis=   352 RedAO= T EigKep=  2.63D-04  NBF=   352
 NBsUse=   352 1.00D-06 EigRej= -1.00D+00 NBFU=   352
 Initial guess from the checkpoint file:  "POZ1.chk"
 B after Tr=    -0.010717    0.006784    0.017679
         Rot=    0.999998   -0.001308    0.001282   -0.000215 Ang=  -0.21 deg.
 ExpMin= 1.03D-01 ExpMax= 1.53D+04 ExpMxC= 5.22D+02 IAcc=2 IRadAn=         4 AccDes= 0.00D+00
 Harris functional with IExCor= 1009 and IRadAn=       4 diagonalized for initial guess.
 HarFok:  IExCor= 1009 AccDes= 0.00D+00 IRadAn=         4 IDoV= 1 UseB2=F ITyADJ=14
 ICtDFT=  3500011 ScaDFX=  1.000000  1.000000  1.000000  1.000000
 FoFCou: FMM=F IPFlag=           0 FMFlag=      100000 FMFlg1=           0
         NFxFlg=           0 DoJE=T BraDBF=F KetDBF=T FulRan=T
         wScrn=  0.000000 ICntrl=       500 IOpCl=  0 I1Cent=   200000004 NGrid=           0
         NMat0=    1 NMatS0=      1 NMatT0=    0 NMatD0=    1 NMtDS0=    0 NMtDT0=    0
 Symmetry not used in FoFCou.
 Requested convergence on RMS density matrix=1.00D-08 within 128 cycles.
 Requested convergence on MAX density matrix=1.00D-06.
 Requested convergence on             energy=1.00D-06.
 No special actions if energy rises.
 Integral accuracy reduced to 1.0D-05 until final iterations.
 Initial convergence to 1.0D-05 achieved.  Increase integral accuracy.
 SCF Done:  E(RM062X) =  -420.788412946     A.U. after   12 cycles
            NFock= 12  Conv=0.86D-08     -V/T= 2.0055
 Calling FoFJK, ICntrl=      2127 FMM=F ISym2X=0 I1Cent= 0 IOpClX= 0 NMat=1 NMatS=1 NMatT=0.
 -------------------------------------------------------------------
 Center     Atomic                   Forces (Hartrees/Bohr)
 Number     Number              X              Y              Z
 -------------------------------------------------------------------
      1        6          -0.000809679   -0.000520002    0.000778317
      2        1          -0.000148792    0.000426434   -0.000383370
      3        1          -0.000744950   -0.000325062    0.000508505
      4        1           0.000557333   -0.000175284   -0.000348484
      5        6          -0.001458462    0.000005183    0.001003098
      6        1          -0.000248248   -0.000197778   -0.000620601
      7        6           0.000454846    0.000237542    0.000632530
      8        1           0.000083945   -0.000777824   -0.000079083
      9        1           0.000287512    0.000032453   -0.000156962
     10        6          -0.000046941   -0.000374271   -0.002360263
     11        6           0.001409102    0.000859017   -0.001027565
     12        1           0.000954469    0.000760123   -0.001082858
     13        8          -0.001574381    0.002039013    0.001533170
     14        8          -0.002515936   -0.003016503    0.002615142
     15        8           0.004166401    0.001839848   -0.001394952
     16        1          -0.000366218   -0.000812889    0.000383377
 -------------------------------------------------------------------
 Cartesian Forces:  Max     0.004166401 RMS     0.001252619

 GradGradGradGradGradGradGradGradGradGradGradGradGradGradGradGradGradGrad
 Berny optimization.
 Using GEDIIS/GDIIS optimizer.
 FormGI is forming the generalized inverse of G from B-inverse, IUseBI=4.
 Internal  Forces:  Max     0.003667478 RMS     0.000769855
 Search for a local minimum.
 Step number   4 out of a maximum of   89
 All quantities printed in internal units (Hartrees-Bohrs-Radians)
 Mixed Optimization -- En-DIIS/RFO-DIIS
 Update second derivatives using D2CorX and points    2    3    4
 DE= -9.45D-04 DEPred=-9.72D-04 R= 9.72D-01
 TightC=F SS=  1.41D+00  RLast= 2.98D-01 DXNew= 1.4270D+00 8.9420D-01
 Trust test= 9.72D-01 RLast= 2.98D-01 DXMaxT set to 8.94D-01
 ITU=  1  1  1  0
 Use linear search instead of GDIIS.
     Eigenvalues ---    0.00237   0.00243   0.00942   0.01307   0.02682
     Eigenvalues ---    0.02711   0.03721   0.04015   0.05608   0.05649
     Eigenvalues ---    0.05733   0.06219   0.06926   0.09462   0.11210
     Eigenvalues ---    0.11269   0.14557   0.15463   0.15992   0.16000
     Eigenvalues ---    0.16006   0.16022   0.16150   0.20420   0.21522
     Eigenvalues ---    0.27722   0.28142   0.31424   0.34180   0.36246
     Eigenvalues ---    0.37205   0.37230   0.37230   0.37230   0.37230
     Eigenvalues ---    0.37298   0.37437   0.38634   0.43963   0.46223
     Eigenvalues ---    0.48182   0.54817
 RFO step:  Lambda=-3.37261251D-04 EMin= 2.37040038D-03
 Quartic linear search produced a step of  0.05704.
 Iteration  1 RMS(Cart)=  0.02542435 RMS(Int)=  0.00037425
 Iteration  2 RMS(Cart)=  0.00042996 RMS(Int)=  0.00005070
 Iteration  3 RMS(Cart)=  0.00000011 RMS(Int)=  0.00005070
 Variable       Old X    -DE/DX   Delta X   Delta X   Delta X     New X
                                 (Linear)    (Quad)   (Total)
    R1        2.05974  -0.00053  -0.00015  -0.00200  -0.00214   2.05760
    R2        2.05892  -0.00095  -0.00000  -0.00256  -0.00256   2.05636
    R3        2.05944  -0.00032  -0.00011  -0.00136  -0.00147   2.05797
    R4        2.88412  -0.00024  -0.00124  -0.00415  -0.00539   2.87873
    R5        2.05030  -0.00027  -0.00002  -0.00092  -0.00094   2.04936
[...]
   zz         0.594218D+02      0.880540D+01      0.979733D+01

 ----------------------------------------------------------------------

 Dipole orientation:
     6         -1.57813944          0.96925232          3.24756505
     1         -1.42850008          3.01528733          3.40520678
     1         -0.01858270          0.26279253          2.10352746
     1         -1.45704575          0.15345358          5.13562294
     6         -6.26259052          1.53654363          3.29498632
     1         -6.61765794          3.44113573          2.62480865
     6         -7.61688531          0.58764569          5.16697812
     1         -7.29524884         -1.29522694          5.90268339
     1         -9.10114530          1.67692206          6.05076576
     6         -4.07912068          0.24611350          2.02094093
     6         -4.32078139         -2.66126347          1.70014625
     1         -6.04886635         -3.42384403          2.50558890
     8         -4.48078662         -3.00965643         -0.94475275
     8         -3.04095570         -0.95836173         -1.86871868
     8         -4.12077255          1.08466386         -0.55985083
     1         -2.66340060         -3.62097970          2.46575505

 Electric dipole moment (dipole orientation):
 (Debye = 10**-18 statcoulomb cm , SI units = C m)
                  (au)            (Debye)         (10**-30 SI)
   Tot        0.138135D+01      0.351104D+01      0.117116D+02
   x          0.000000D+00      0.000000D+00      0.000000D+00
   y          0.000000D+00      0.000000D+00      0.000000D+00
   z          0.138135D+01      0.351104D+01      0.117116D+02

 Dipole polarizability, Alpha (dipole orientation).
 (esu units = cm**3 , SI units = C**2 m**2 J**-1)
 Alpha(0;0):
               (au)            (10**-24 esu)      (10**-40 SI)
   iso        0.671413D+02      0.994932D+01      0.110701D+02
   aniso      0.200349D+02      0.296887D+01      0.330331D+01
   xx         0.658843D+02      0.976305D+01      0.108629D+02
   yx         0.465946D+00      0.690461D-01      0.768242D-01
   yy         0.656730D+02      0.973174D+01      0.108280D+02
   zx        -0.112855D+02     -0.167233D+01     -0.186072D+01
   zy         0.799075D+00      0.118411D+00      0.131750D+00
   zz         0.698667D+02      0.103532D+02      0.115195D+02

 ----------------------------------------------------------------------
 1\1\GINC-FENG10\Freq\RM062X\CC-pVTZ\C5H8O3\LIDONGYANG\03-Sep-2025\0\\#
 N Geom=AllCheck Guess=TCheck SCRF=Check GenChk RM062X/CC-pVTZ Freq\\Ti
 tle Card Required\\0,1\C,-1.7486946073,-0.8513420455,0.3621399382\H,-1
 .5509714373,-1.8901449014,0.6215537119\H,-0.9622758848,-0.4918964982,-
 0.3009590961\H,-2.7065241216,-0.79820677,-0.1559791732\C,-2.6996701296
 ,-0.5855176291,2.6557615446\H,-2.2364968304,-1.3521963547,3.2677624116
 \C,-3.9790153055,-0.2918287105,2.8109571652\H,-4.4775564974,0.45680811
 22,2.2073868448\H,-4.5821412978,-0.8007119129,3.5493152379\C,-1.788080
 1164,0.0070133368,1.6195162821\C,-2.0296938363,1.5033987637,1.28089977
 21\H,-2.8650588013,1.9362409849,1.8245593507\O,-0.8608292066,2.1521332
 402,1.742412905\O,0.1202335123,1.1478142359,1.5788254599\O,-0.48495263
 64,0.0541809192,2.221307447\H,-2.1501971836,1.6417153395,0.2049707382\
 \Version=ES64L-G16RevA.03\HF=-420.7898909\RMSD=2.349e-09\RMSF=7.723e-0
 6\ZeroPoint=0.1286536\Thermal=0.1364702\Dipole=-1.2275008,-0.4547282,-
 0.4411283\DipoleDeriv=-0.0472529,-0.0179736,0.0909478,-0.093391,0.0149
 636,-0.0434514,0.0114788,-0.0644569,-0.0794768,0.0787882,0.0304458,-0.
 0072196,0.0135406,-0.0852307,0.0080841,-0.0306472,0.0563509,0.0437759,
 -0.0002789,-0.0233667,0.0802069,-0.035595,0.0414799,0.0275428,0.082463
 6,0.0127884,-0.0172264,-0.0607629,0.00783,-0.0719394,0.0304172,0.04608
 61,0.0102192,-0.0469554,-0.026106,0.0349184,0.0938847,-0.0617426,-0.10
 22748,-0.0408294,-0.072927,-0.1766328,-0.1190441,-0.1557088,-0.0225542
 ,0.0321698,0.0468046,0.0046555,0.0454049,0.0465729,0.0772107,0.0337492
 ,0.0821468,0.0533095,-0.1461762,-0.0572724,0.0228323,-0.0504022,-0.105
 2128,-0.148928,-0.0141329,-0.1553695,-0.1123281,0.0664154,0.0268687,-0
 .0008364,0.0559391,0.0276524,0.0887051,-0.0260769,0.101119,0.0372807,0
 .0273576,-0.0072118,0.0508688,-0.0302235,0.0758666,0.0869795,0.0690818
 ,0.0758507,0.0490273,0.5222914,0.2521192,0.0160435,0.1560341,0.3121142
 ,0.1123052,0.0511991,0.2689964,0.3702543,0.3714376,0.0031556,0.1238997
 ,0.1282911,0.1411978,0.0339587,0.082378,-0.0874787,0.367626,-0.0271763
 ,0.0490228,0.010551,0.0322723,0.0706842,-0.0302453,0.0358524,-0.052134
 5,0.0241179,-0.320148,0.0998583,-0.1009619,-0.1856183,-0.435841,0.0041
 905,-0.0082825,0.0323655,-0.2454745,-0.1794015,-0.1304341,-0.0540607,-
 0.0684949,0.3164072,-0.0790458,-0.0027058,-0.1025301,-0.0473302,-0.416
 9003,-0.2092809,-0.0618831,0.0694904,-0.4395785,0.0184677,-0.0659763,-
 0.0183645,-0.3250821,0.0057523,-0.0088228,-0.0008295,-0.0268353,0.0457
 651,0.0106399,-0.0523817,0.0325313,-0.1308379\Polar=76.8392709,0.87477
 86,65.1629704,-6.6705237,-3.1242191,59.4218023\Quadrupole=5.8199127,-2
 .4407281,-3.3791847,-1.3442261,-3.721852,-3.099802\PG=C01 [X(C5H8O3)]\
 NImag=0\\0.59007544,0.00252136,0.56003855,0.00177294,-0.05617611,0.507
 52106,-0.05654703,0.04725176,-0.01091475,0.05564114,0.04683086,-0.2946
 1424,0.06457095,-0.05224809,0.31971674,-0.01258366,0.06706212,-0.06498
 365,0.01247994,-0.06814701,0.06893514,-0.18967977,-0.06480737,0.119745
 66,0.00556046,0.00226665,-0.00537373,0.20235896,-0.06705706,-0.0792643
 8,0.05667693,-0.02263519,-0.00831712,0.01736067,0.07184326,0.08270535,
 0.11751752,0.05552677,-0.14445603,0.00456019,0.00166369,-0.00465470,-0
 .13104076,-0.05822088,0.15805591,-0.25677534,0.01260410,-0.11315416,-0
 .00429404,-0.00028032,-0.00128854,-0.01777618,0.00187193,-0.01152945,0
 .27646404,0.01390445,-0.04768300,0.00665680,0.02729125,0.00035336,0.01
 470590,-0.00882947,-0.00076849,-0.00595433,-0.01378891,0.04854116,-0.1
 1077639,0.00605083,-0.10634763,-0.00568543,0.00001527,-0.00429394,0.01
 745646,-0.00173012,0.01086319,0.12382828,-0.00506512,0.11444007,-0.001
 15335,0.00271457,0.01130638,0.00014930,-0.00100272,-0.00011752,-0.0000
 1352,-0.00094304,-0.00014837,0.00016179,-0.00009870,-0.00095371,0.8412
 5938,0.01249042,0.00975435,-0.01192562,0.00032157,0.00052493,-0.000776
 46,0.00014118,-0.00168168,-0.00452673,-0.00037057,-0.00017204,0.000105
 91,-0.17293494,0.40408910,0.01928305,0.00545826,-0.02689145,-0.0000762
 0,0.00090789,0.00140033,0.00042471,-0.00233367,-0.00287184,0.00024163,
 0.00076691,0.00113520,-0.07607638,-0.18964743,0.39296601,-0.00014257,-
 0.00046946,-0.00057998,0.00003755,0.00032731,-0.00006167,-0.00011102,0
 .00021945,0.00005208,0.00002479,0.00000988,-0.00007547,-0.10186846,0.0
 8558438,-0.06235598,0.10917876,-0.00088382,-0.00040837,0.00038372,0.00
 008771,0.00014959,0.00017889,0.00002602,0.00009723,0.00029386,0.000134
 61,0.00006527,-0.00022611,0.08804771,-0.18799611,0.11934761,-0.0954889
 9,0.19088042,-0.00011015,0.00044074,0.00073267,0.00016885,-0.00060517,
 -0.00034970,0.00023011,-0.00046606,0.00001752,0.00018318,-0.00000966,0
 .00001390,-0.06454177,0.12023970,-0.14123983,0.06582716,-0.13484269,0.
 14006025,-0.00060719,-0.00190544,-0.00228430,-0.00023875,0.00026961,-0
 .00012912,0.00077202,0.00048299,0.00035896,0.00036138,-0.00013679,0.00
 064440,-0.55426033,0.11670869,0.06052070,-0.01090680,0.00225003,0.0041
 7143,0.83821642,-0.00135705,-0.00077895,0.00101722,-0.00011037,0.00029
 903,0.00027606,0.00001709,0.00057449,0.00052534,-0.00016534,0.00011088
 ,0.00032753,0.11257305,-0.11006266,0.01755955,0.02429165,0.00069621,-0
 .00157004,-0.13592432,0.39853703,0.00192180,0.00144287,-0.00127652,-0.
 00016879,-0.00010988,-0.00006181,0.00024883,-0.00042741,-0.00058333,0.
 00004557,-0.00004396,0.00027473,0.06144976,0.01635436,-0.09151530,-0.0
 1799163,0.00592525,0.00758780,-0.11695305,-0.24611782,0.41042257,-0.00
 000613,0.00002489,-0.00009843,0.00008161,-0.00007416,-0.00008347,-0.00
 002752,-0.00002471,-0.00000488,0.00002217,0.00005757,0.00009114,-0.009
 86604,0.02349748,-0.01826989,-0.00386306,0.00249994,0.00314820,-0.1124
 7644,0.08893808,-0.06624734,0.11644466,0.00085555,0.00036453,-0.000458
 31,0.00000556,0.00003612,-0.00003257,-0.00009710,-0.00017839,-0.000322
 32,0.00002421,-0.00004812,-0.00027274,0.00376214,-0.00041087,0.0058276
 7,0.00269623,0.00643784,0.00476608,0.09168053,-0.18333703,0.11923164,-
 0.10153389,0.18766675,0.00061144,0.00031387,-0.00019950,0.00002267,0.0
 0000330,-0.00000326,-0.00012206,-0.00010296,-0.00025441,-0.00016779,0.
 00001333,-0.00013382,0.00268649,-0.00102302,0.00710694,0.00293315,0.00
 502348,0.00596801,-0.06910580,0.11974975,-0.13797444,0.07365872,-0.132
 77589,0.13522301,-0.00059835,-0.00056734,0.00054650,0.00000842,0.00000
 172,0.00001229,0.00003466,0.00017071,0.00031524,0.00001556,0.00006858,
 0.00013011,-0.01469849,-0.01559959,0.02335932,0.00049737,-0.00154906,-
 0.00160969,-0.14104399,-0.07137225,0.11060001,0.00966645,0.00719846,-0
 .00983593,0.14854588,-0.00098156,-0.00055971,0.00091919,-0.00003391,-0
 .00007498,-0.00003483,0.00005036,0.00019065,0.00035281,0.00003234,-0.0
 0004313,-0.00002531,0.00725107,0.00720169,-0.00592247,-0.00183653,-0.0
 0360199,-0.00445994,-0.07543326,-0.11321328,0.10637914,-0.01108176,-0.
 00553544,0.01262917,0.07750676,0.10911076,-0.00130485,-0.00079367,0.00
 095129,0.00004191,-0.00010988,-0.00004433,0.00003379,0.00023878,0.0004
 5983,0.00005969,0.00003354,0.00002284,0.00047952,0.00243238,0.00139026
 ,-0.00149867,-0.00458437,-0.00321301,0.11409953,0.10528255,-0.18562189
 ,0.00918921,0.00642095,-0.00693343,-0.12388879,-0.11462385,0.18680666,
 -0.07213091,0.00158341,0.00909259,-0.00203081,0.00378089,0.00589792,-0
 .00149330,0.01585666,0.02105007,-0.00039425,-0.01614056,-0.02272166,-0
 .12022766,-0.02826188,0.05995234,0.00804098,0.00496848,-0.00871087,-0.
 01789991,-0.01090390,0.02192958,0.00103544,-0.00195783,-0.00112515,-0.
 00172112,0.00314757,0.00136319,0.46943111,0.00994342,-0.11737760,-0.05
 544724,0.00065597,-0.01811402,-0.02842352,-0.00108115,0.00497890,0.008
 45112,0.00035997,0.00029741,0.00387320,-0.01986739,-0.10584548,0.04958
 577,-0.01407815,-0.00638372,0.01795670,0.00210179,0.00861292,-0.005347
 11,-0.00039562,-0.00420524,-0.00389258,0.00437955,0.00509195,0.0051169
 4,0.05045118,0.51260533,0.02008255,-0.04927708,-0.15023311,-0.00110433
 ,0.00458544,0.00603590,-0.00085474,-0.01247408,-0.02065072,0.00186129,
 -0.00587898,-0.01056873,0.04878457,0.04422820,-0.14752622,0.01177860,0
 .00705236,-0.00916304,0.00820869,0.00019787,0.00138271,-0.00226458,-0.
 00311746,-0.00326167,0.00029011,0.00618006,0.00731027,-0.04187951,-0.0
 2501839,0.50246952,0.00059051,0.00233875,0.00027817,0.00164529,0.00060
 477,-0.00029988,0.00082794,0.00063478,-0.00070617,0.00054118,-0.000960
 84,-0.00000265,0.00700717,-0.01496899,0.00222623,-0.00167724,-0.000470
 82,0.00188432,-0.00061780,-0.00019864,0.00095348,-0.00102955,-0.000505
 22,0.00014860,-0.00016923,0.00029276,-0.00022520,-0.06940930,0.0107652
 5,0.00204629,0.57232433,0.00329295,-0.02554275,0.00008545,-0.00006821,
 -0.00052476,-0.00171112,-0.00007418,0.00137683,0.00161305,-0.00001330,
 0.00071025,0.00069316,-0.00423820,-0.01082697,0.00729199,0.00033832,0.
 00003509,-0.00188847,0.00137971,0.00025627,-0.00087881,0.00009458,-0.0
 0012797,0.00064454,0.00063923,-0.00007483,0.00016659,0.01846219,-0.133
 67894,0.01170133,-0.09069701,0.44123302,0.00514250,-0.02459851,0.00526
 860,0.00005242,-0.00260241,-0.00481397,0.00072392,-0.00097022,0.000203
 19,-0.00065349,-0.00052335,0.00001109,-0.00375391,0.02223168,-0.007646
 77,0.00247582,0.00182598,-0.00154407,-0.00160629,-0.00007060,0.0003026
 1,0.00073848,0.00003583,0.00035544,-0.00017945,-0.00034129,0.00007591,
 -0.00068021,0.02048671,-0.08025722,-0.03338957,0.02186818,0.61648469,0
 .00006151,0.00002552,-0.00043187,-0.00012440,-0.00009361,0.00007135,-0
 .00012659,-0.00015686,0.00007206,-0.00001004,0.00005279,0.00002619,-0.
 00073318,-0.00019069,0.00041194,-0.00008112,-0.00015582,-0.00015441,-0
 .00014113,-0.00148538,0.00063210,-0.00068396,-0.00144923,0.00054212,0.
 00004158,-0.00014185,-0.00003731,-0.00037350,0.00246308,0.00051579,-0.
 20164066,0.08139291,0.10342047,0.23324205,0.00023644,-0.00352608,0.001
 51836,-0.00019079,-0.00081588,-0.00090851,-0.00008095,0.00022420,0.000
 34443,-0.00010864,-0.00008930,-0.00015805,0.00099254,0.00108636,-0.000
 98909,-0.00000246,0.00018578,-0.00002880,-0.00012929,-0.00042448,0.000
 44540,-0.00137188,-0.00069091,0.00001295,-0.00019754,0.00040581,-0.000
 13331,0.01869916,-0.00751570,-0.01569743,0.09037990,-0.09395575,-0.057
 62747,-0.08781493,0.09688994,0.00029884,0.00010395,0.00016766,-0.00010
 897,-0.00012802,0.00029465,-0.00030101,0.00014359,0.00017338,0.0000734
 6,0.00014037,0.00003912,-0.00022906,0.00031246,0.00062610,-0.00013583,
 0.00011159,0.00033110,0.00097118,0.00024317,-0.00037964,0.00010637,0.0
 0053445,0.00007505,-0.00012422,0.00015217,-0.00010973,-0.00641251,0.00
 247927,0.00284742,0.11362497,-0.06124065,-0.12850769,-0.11407175,0.061
 27122,0.12940698,0.00032238,0.00072822,0.00034843,-0.00022748,-0.00008
 349,-0.00006587,-0.00046711,0.00007898,-0.00041278,0.00031937,0.000795
 37,0.00050025,0.00300418,-0.00282893,0.00085802,-0.00074512,-0.0005312
 1,0.00074882,-0.00050938,0.00056412,-0.00014622,0.00050805,-0.00019631
 ,0.00015631,0.00026312,-0.00035018,0.00000904,-0.01192054,-0.03050639,
 0.00276452,-0.15412173,-0.07004160,-0.05357117,-0.02923053,-0.01720762
 ,-0.00926570,0.35174588,0.00027282,-0.00447484,0.00210022,0.00071589,-
 0.00050521,-0.00124555,0.00003315,-0.00041132,-0.00056544,0.00015348,0
 .00037644,-0.00028262,0.00372817,-0.00102958,0.00064067,-0.00084046,-0
 .00008984,0.00055422,0.00027153,0.00002906,0.00020195,-0.00013906,0.00
 037194,-0.00027580,-0.00025935,-0.00009765,-0.00024629,-0.01965288,-0.
 03204434,-0.00918652,-0.04156928,-0.12430895,-0.04255032,0.01274475,0.
 00971290,0.00572677,0.00919076,0.35821027,-0.00031109,-0.00029933,-0.0
 0102298,0.00024398,-0.00010887,0.00044099,-0.00015158,0.00010401,0.000
 05829,0.00057929,0.00019400,0.00037163,-0.00066409,-0.00054991,0.00020
 667,-0.00021850,-0.00002460,-0.00022385,0.00027074,0.00023785,-0.00009
 714,-0.00005030,0.00003856,-0.00022800,0.00001698,0.00004552,-0.000006
 41,0.00182502,-0.00545306,0.00376613,-0.04791869,-0.04021190,-0.092682
 58,0.00929633,0.00627595,0.00780080,0.05252666,0.06962365,0.12017288,0
 .00210323,0.00000254,0.00060332,-0.00049611,-0.00015627,0.00001487,-0.
 00004027,-0.00031444,-0.00007640,0.00013387,0.00019884,0.00039983,-0.0
 0996880,0.00083853,-0.00741115,0.00025112,0.00013026,-0.00008370,-0.00
 110842,-0.00184180,0.00202801,0.00009305,-0.00034176,-0.00012053,-0.00
 039152,0.00071117,0.00070816,-0.04220794,-0.03423204,0.02369785,-0.071
 32439,0.02514532,0.00777702,-0.00680978,-0.00413191,-0.00681016,-0.154
 33383,0.03635588,0.04323430,0.39666378,0.00112233,0.00075394,-0.000198
 82,-0.00068613,-0.00008323,0.00037272,-0.00046076,0.00005429,-0.000680
 16,0.00080889,0.00080369,0.00050939,0.00135293,-0.00187634,-0.00335593
 ,0.00037601,-0.00005873,0.00046273,0.00000671,-0.00011274,0.00007326,0
 .00014122,-0.00024116,0.00009389,0.00014928,0.00012587,0.00011339,-0.0
 3786152,-0.02544711,0.00236329,0.01859735,0.00669290,0.01069373,-0.002
 79572,-0.00427946,0.00250850,0.09935011,-0.11794902,-0.03164660,0.0034
 9679,0.25749454,-0.00013028,-0.00083979,0.00083423,-0.00029183,-0.0001
 5717,0.00010018,-0.00089654,-0.00022853,0.00060294,-0.00044098,0.00021
 372,0.00008892,0.00127049,0.00055526,0.00111753,-0.00062992,-0.0005403
 7,0.00036169,-0.00019110,0.00017320,0.00028555,-0.00001355,-0.00003984
 ,-0.00001152,-0.00009003,-0.00016488,-0.00013489,0.00590571,-0.0030382
 6,0.01194981,-0.01049515,0.01016887,0.00625763,-0.00001716,0.00189831,
 0.00046698,0.04233056,-0.03473097,-0.04505669,-0.10249365,-0.05509265,
 0.11839534,-0.01653241,-0.00174165,-0.01596544,0.00079083,-0.00003349,
 0.00154461,0.00044085,-0.00026519,0.00010145,0.00124702,-0.00238591,-0
 .00308642,-0.03808924,-0.00465176,-0.00322237,0.00125067,0.00105396,-0
 .00093820,0.00016694,-0.00261673,0.00178782,-0.00008532,-0.00035757,-0
 .00043382,-0.00045990,0.00096009,0.00101647,-0.13964316,0.01624823,-0.
 06961524,-0.02840427,0.02756913,-0.01636644,0.00123191,0.00459467,-0.0
 0095379,0.00938337,0.00429978,-0.02175998,-0.11553934,-0.08299985,0.06
 597187,0.32482412,-0.02146029,0.00284752,-0.01168037,-0.00028780,0.001
 62851,0.00155832,0.00049147,0.00059979,0.00188120,-0.00074222,-0.00215
 923,-0.00366992,-0.02342798,0.00027972,-0.00572502,-0.00038752,0.00051
 126,-0.00125719,-0.00146755,-0.00126156,0.00273593,-0.00039211,-0.0000
 4701,-0.00031054,-0.00051401,0.00092576,0.00062365,-0.00448917,-0.0750
 4778,0.01576101,0.01778751,-0.00800166,0.01500973,-0.00161985,-0.00061
 710,-0.00000670,0.02191108,-0.08725356,0.02442271,-0.02602444,-0.11714
 225,0.08116758,0.03969183,0.28876083,-0.04167176,-0.00190808,-0.020969
 90,0.00070566,0.00062754,0.00174295,0.00015906,0.00212355,0.00256014,0
 .00018745,-0.00580580,-0.00633387,0.02089729,0.00111395,0.01159840,0.0
 0028769,-0.00014219,0.00071967,0.00123923,0.00170915,-0.00263245,0.000
 17464,0.00030282,0.00044391,0.00040107,-0.00109164,-0.00097049,-0.0466
 8768,0.01890616,-0.10792880,-0.01156439,0.01319380,-0.00730647,0.00079
 292,0.00039214,-0.00038569,-0.02420637,0.01725352,0.01368616,0.0379577
 2,0.07351814,-0.09628715,0.06136134,-0.12102462,0.21243730,0.00101997,
 -0.00030386,-0.00026505,0.00004403,-0.00010964,-0.00001751,-0.00025963
 ,0.00023771,-0.00010876,-0.00004130,-0.00003756,0.00022508,-0.00070276
 ,0.00022508,0.00013404,0.00011416,-0.00011901,-0.00021327,0.00029339,-
 0.00040822,-0.00008992,0.00018659,0.00021623,0.00015156,0.00000956,-0.
 00009305,-0.00004570,0.00094487,0.00279231,-0.00431186,-0.05454224,0.0
 0681816,-0.01013010,0.00537782,-0.00366672,0.02333820,-0.01399063,-0.0
 0530517,-0.03691908,0.00297534,-0.00059764,0.00021158,-0.00058206,0.00
 093104,-0.00003387,0.05915288,0.00026920,0.00047103,0.00195763,-0.0000
 6922,0.00034117,-0.00023510,0.00056180,-0.00018035,-0.00038243,-0.0005
 2026,-0.00029514,-0.00014529,0.00209080,-0.00303439,0.00058730,-0.0007
 3966,-0.00051992,0.00070786,-0.00015494,0.00007481,0.00013519,-0.00024
 055,-0.00005503,-0.00010349,-0.00005517,0.00014854,0.00006260,0.002318
 19,-0.00592657,0.02858036,0.00796971,-0.05326179,0.03713235,-0.0007751
 2,0.00340966,-0.01235213,-0.01087291,-0.00053631,-0.02264798,0.0001633
 3,0.00126480,0.00065553,0.00063445,-0.00402324,0.00083158,-0.00057965,
 0.06212272,0.00025754,-0.00250683,0.00090526,0.00007469,-0.00040568,0.
 00025522,-0.00028211,0.00030641,0.00047663,0.00017458,0.00055664,0.000
 41730,-0.00038968,0.00087529,0.00014396,0.00019315,0.00021758,-0.00005
 912,-0.00021520,0.00045922,-0.00011344,-0.00007431,-0.00013887,-0.0001
 7229,0.00005648,0.00000617,0.00001714,0.00120118,-0.00023570,-0.006172
 27,-0.01656037,0.03850398,-0.30620038,-0.00106878,0.00338390,-0.012846
 48,-0.01257450,-0.00701749,-0.00718591,0.00057451,0.00026512,0.0010294
 4,0.00055815,0.00051424,-0.00037371,0.02807466,-0.03478399,0.32987864\
 \-0.00000659,-0.00000515,-0.00000086,-0.00000053,-0.00000257,0.0000004
 0,-0.00000275,-0.00000120,0.00000002,-0.00000361,-0.00000100,-0.000000
 53,0.00000535,-0.00000025,-0.00000085,0.00000143,0.00000020,0.00000124
 ,0.00000908,0.00000130,-0.00000333,0.00000075,0.00000192,0.00000436,-0
 .00000025,-0.00000080,0.00000141,-0.00002262,0.00001136,-0.00001607,0.
 00002157,-0.00002367,0.00001269,-0.00000734,0.00000240,0.00000146,-0.0
 0000150,0.00001665,-0.00000859,0.00000433,0.00000474,0.00000653,0.0000
 0190,-0.00000397,0.00000196,0.00000079,0.00000005,0.00000016\\\@


 ALL MEN WHO EXPLORE
 DEPLORE
 THAT FRUSTRATING HURDLE
 THE GIRDLE.

         -- COLIN FLETCHER
 Job cpu time:       0 days  2 hours 17 minutes 49.3 seconds.
 Elapsed time:       0 days  0 hours 17 minutes 15.6 seconds.
 File lengths (MBytes):  RWF=    166 Int=      0 D2E=      0 Chk=     12 Scr=      1
 Normal termination of Gaussian 16 at Wed Sep  3 02:15:18 2025.
