 Entering Gaussian System, Link 0=g16
 Initial command:
 /opt/apps/g16-avx/g16/l1.exe "/tmp/Gau-46014.inp" -scrdir="/tmp/"
 Entering Link 1 = /opt/apps/g16-avx/g16/l1.exe PID=     46015.
  
 Copyright (c) 1988,1990,1992,1993,1995,1998,2003,2009,2016,
            Gaussian, Inc.  All Rights Reserved.
  
 This is part of the Gaussian(R) 16 program.  It is based on
 the Gaussian(R) 09 system (copyright 2009, Gaussian, Inc.),
 the Gaussian(R) 03 system (copyright 2003, Gaussian, Inc.),
 the Gaussian(R) 98 system (copyright 1998, Gaussian, Inc.),
 the Gaussian(R) 94 system (copyright 1995, Gaussian, Inc.),
 the Gaussian 92(TM) system (copyright 1992, Gaussian, Inc.),
 the Gaussian 90(TM) system (copyright 1990, Gaussian, Inc.),
 the Gaussian 88(TM) system (copyright 1988, Gaussian, Inc.),
 the Gaussian 86(TM) system (copyright 1986, Carnegie Mellon
 University), and the Gaussian 82(TM) system (copyright 1983,
 Carnegie Mellon University). Gaussian is a federally registered
 trademark of Gaussian, Inc.
  
 This software contains proprietary and confidential information,
 including trade secrets, belonging to Gaussian, Inc.
  
 This software is provided under written license and may be
 used, copied, transmitted, or stored only in accord with that
 written license.
  
 The following legend is applicable only to US Government
 contracts under FAR:
  
                    RESTRICTED RIGHTS LEGEND
  
 Use, reproduction and disclosure by the US Government is
 subject to restrictions as set forth in subparagraphs (a)
 and (c) of the Commercial Computer Software - Restricted
 Rights clause in FAR 52.227-19.
  
 Gaussian, Inc.
 340 Quinnipiac St., Bldg. 40, Wallingford CT 06492
  
  
 ---------------------------------------------------------------
 Warning -- This program may not be used in any manner that
 competes with the business of Gaussian, Inc. or will provide
 assistance to any competitor of Gaussian, Inc.  The licensee
 of this program is prohibited from giving any competitor of
 Gaussian, Inc. access to this program.  By using this program,
 the user acknowledges that Gaussian, Inc. is engaged in the
 business of creating and licensing software in the field of
 computational chemistry and represents and warrants to the
 licensee that it is not a competitor of Gaussian, Inc. and that
 it will not use this program in any manner prohibited above.
 ---------------------------------------------------------------
  

 Cite this work as:
 Gaussian 16, Revision A.03,
 M. J. Frisch, G. W. Trucks, H. B. Schlegel, G. E. Scuseria, 
 M. A. Robb, J. R. Cheeseman, G. Scalmani, V. Barone, 
 G. A. Petersson, H. Nakatsuji, X. Li, M. Caricato, A. V. Marenich, 
 J. Bloino, B. G. Janesko, R. Gomperts, B. Mennucci, H. P. Hratchian, 
 J. V. Ortiz, A. F. Izmaylov, J. L. Sonnenberg, D. Williams-Young, 
 F. Ding, F. Lipparini, F. Egidi, J. Goings, B. Peng, A. Petrone, 
 T. Henderson, D. Ranasinghe, V. G. Zakrzewski, J. Gao, N. Rega, 
 G. Zheng, W. Liang, M. Hada, M. Ehara, K. Toyota, R. Fukuda, 
 J. Hasegawa, M. Ishida, T. Nakajima, Y. Honda, O. Kitao, H. Nakai, 
 T. Vreven, K. Throssell, J. A. Montgomery, Jr., J. E. Peralta, 
 F. Ogliaro, M. J. Bearpark, J. J. Heyd, E. N. Brothers, K. N. Kudin, 
 V. N. Staroverov, T. A. Keith, R. Kobayashi, J. Normand, 
 K. Raghavachari, A. P. Rendell, J. C. Burant, S. S. Iyengar, 
 J. Tomasi, M. Cossi, J. M. Millam, M. Klene, C. Adamo, R. Cammi, 
 J. W. Ochterski, R. L. Martin, K. Morokuma, O. Farkas, 
 J. B. Foresman, and D. J. Fox, Gaussian, Inc., Wallingford CT, 2016.
 
 ******************************************
 Gaussian 16:  ES64L-G16RevA.03 25-Dec-2016
                15-Sep-2025 
 ******************************************
 %nprocshared=10
 Will use up to   10 processors via shared memory.
 %mem=20GB
 %chk=ts1_di1.chk
 ---------------------------------------------------------------------
 # opt=(calcfc,ts,noeigen) freq cc-pvtz nosymm em=gd3 um062x guess=mix
 ---------------------------------------------------------------------
 1/5=1,10=4,11=1,18=20,26=3,38=1/1,3;
 2/9=110,12=2,15=1,17=6,18=5,40=1/2;
 3/5=16,6=1,11=2,25=1,30=1,71=2,74=-55,116=2,124=31,140=1/1,2,3;
 4/13=-1/1;
 5/5=2,38=5/2;
 8/6=4,10=90,11=11/1;
 11/6=1,8=1,9=11,15=111,16=1,31=1/1,2,10;
 10/6=1,13=1,31=1/2;
 6/7=2,8=2,9=2,10=2,28=1/1;
 7/10=1,18=20,25=1,30=1/1,2,3,16;
 1/5=1,10=4,11=1,18=20,26=3/3(2);
 2/9=110,15=1/2;
 99//99;
 2/9=110,15=1/2;
 3/5=16,6=1,11=2,25=1,30=1,71=1,74=-55,116=2,124=31/1,2,3;
 4/5=5,16=3,69=1/1;
 5/5=2,38=5/2;
 7/30=1/1,2,3,16;
 1/5=1,11=1,18=20,26=3/3(-5);
 2/9=110,15=1/2;
 6/7=2,8=2,9=2,10=2,19=2,28=1/1;
 99/9=1/99;
 -------------------
 Title Card Required
 -------------------
 Symbolic Z-matrix:
 Charge =  0 Multiplicity = 1
 C                    -1.31644  -0.88026   0.4914 
 H                    -1.08406  -1.81944   1.01124 
 H                    -0.40223  -0.47097   0.04036 
 H                    -2.04176  -1.08849  -0.30863 
 C                    -3.06969  -0.40863   2.23139 
 H                    -3.82313  -0.90901   1.61461 
 C                    -3.23374  -0.30765   3.54828 
 H                    -2.4908    0.18607   4.17514 
 H                    -4.11977  -0.72296   4.02951 
 C                    -1.89829   0.13515   1.46243 
 C                    -2.22651   1.48704   0.70512 
 H                    -3.31921   1.64635   0.76047 
 O                    -1.63766   2.53998   1.34723 
 O                    -0.12328   1.41383   1.89182 
 O                    -0.90093   0.51578   2.42955 
 H                    -1.92266   1.39841  -0.35467 
 

 GradGradGradGradGradGradGradGradGradGradGradGradGradGradGradGradGradGrad
 Berny optimization.
 Initialization pass.
                           ----------------------------
                           !    Initial Parameters    !
                           ! (Angstroms and Degrees)  !
 --------------------------                            --------------------------
 ! Name  Definition              Value          Derivative Info.                !
 --------------------------------------------------------------------------------
 ! R1    R(1,2)                  1.0983         calculate D2E/DX2 analytically  !
 ! R2    R(1,3)                  1.0985         calculate D2E/DX2 analytically  !
 ! R3    R(1,4)                  1.0998         calculate D2E/DX2 analytically  !
 ! R4    R(1,10)                 1.5207         calculate D2E/DX2 analytically  !
 ! R5    R(5,6)                  1.0947         calculate D2E/DX2 analytically  !
 ! R6    R(5,7)                  1.3309         calculate D2E/DX2 analytically  !
 ! R7    R(5,10)                 1.5031         calculate D2E/DX2 analytically  !
 ! R8    R(7,8)                  1.0903         calculate D2E/DX2 analytically  !
 ! R9    R(7,9)                  1.0905         calculate D2E/DX2 analytically  !
 ! R10   R(10,11)                1.5839         calculate D2E/DX2 analytically  !
 ! R11   R(10,15)                1.4405         calculate D2E/DX2 analytically  !
 ! R12   R(11,12)                1.1056         calculate D2E/DX2 analytically  !
 ! R13   R(11,13)                1.3666         calculate D2E/DX2 analytically  !
 ! R14   R(11,16)                1.106          calculate D2E/DX2 analytically  !
 ! R15   R(14,15)                1.304          calculate D2E/DX2 analytically  !
 ! A1    A(2,1,3)              109.6854         calculate D2E/DX2 analytically  !
 ! A2    A(2,1,4)              108.7803         calculate D2E/DX2 analytically  !
 ! A3    A(2,1,10)             110.4689         calculate D2E/DX2 analytically  !
 ! A4    A(3,1,4)              108.7075         calculate D2E/DX2 analytically  !
 ! A5    A(3,1,10)             109.3795         calculate D2E/DX2 analytically  !
 ! A6    A(4,1,10)             109.7912         calculate D2E/DX2 analytically  !
 ! A7    A(6,5,7)              120.4849         calculate D2E/DX2 analytically  !
 ! A8    A(6,5,10)             114.4252         calculate D2E/DX2 analytically  !
 ! A9    A(7,5,10)             125.0872         calculate D2E/DX2 analytically  !
 ! A10   A(5,7,8)              121.2833         calculate D2E/DX2 analytically  !
 ! A11   A(5,7,9)              120.5251         calculate D2E/DX2 analytically  !
 ! A12   A(8,7,9)              118.1912         calculate D2E/DX2 analytically  !
 ! A13   A(1,10,5)             112.5382         calculate D2E/DX2 analytically  !
 ! A14   A(1,10,11)            110.1138         calculate D2E/DX2 analytically  !
 ! A15   A(1,10,15)            109.8913         calculate D2E/DX2 analytically  !
 ! A16   A(5,10,11)            113.0721         calculate D2E/DX2 analytically  !
 ! A17   A(5,10,15)            106.9616         calculate D2E/DX2 analytically  !
 ! A18   A(11,10,15)           103.8249         calculate D2E/DX2 analytically  !
 ! A19   A(10,11,12)           107.688          calculate D2E/DX2 analytically  !
 ! A20   A(10,11,13)           110.0993         calculate D2E/DX2 analytically  !
 ! A21   A(10,11,16)           109.4393         calculate D2E/DX2 analytically  !
 ! A22   A(12,11,13)           106.9358         calculate D2E/DX2 analytically  !
 ! A23   A(12,11,16)           109.331          calculate D2E/DX2 analytically  !
 ! A24   A(13,11,16)           113.1763         calculate D2E/DX2 analytically  !
 ! A25   A(10,15,14)           108.544          calculate D2E/DX2 analytically  !
 ! D1    D(2,1,10,5)           -53.0082         calculate D2E/DX2 analytically  !
 ! D2    D(2,1,10,11)          179.8469         calculate D2E/DX2 analytically  !
 ! D3    D(2,1,10,15)           66.073          calculate D2E/DX2 analytically  !
 ! D4    D(3,1,10,5)          -173.8354         calculate D2E/DX2 analytically  !
 ! D5    D(3,1,10,11)           59.0197         calculate D2E/DX2 analytically  !
 ! D6    D(3,1,10,15)          -54.7542         calculate D2E/DX2 analytically  !
 ! D7    D(4,1,10,5)            66.9605         calculate D2E/DX2 analytically  !
 ! D8    D(4,1,10,11)          -60.1844         calculate D2E/DX2 analytically  !
 ! D9    D(4,1,10,15)         -173.9583         calculate D2E/DX2 analytically  !
 ! D10   D(6,5,7,8)            179.8718         calculate D2E/DX2 analytically  !
 ! D11   D(6,5,7,9)              0.0748         calculate D2E/DX2 analytically  !
 ! D12   D(10,5,7,8)            -0.768          calculate D2E/DX2 analytically  !
 ! D13   D(10,5,7,9)           179.4349         calculate D2E/DX2 analytically  !
 ! D14   D(6,5,10,1)           -48.237          calculate D2E/DX2 analytically  !
 ! D15   D(6,5,10,11)           77.3166         calculate D2E/DX2 analytically  !
 ! D16   D(6,5,10,15)         -169.0139         calculate D2E/DX2 analytically  !
 ! D17   D(7,5,10,1)           132.3686         calculate D2E/DX2 analytically  !
 ! D18   D(7,5,10,11)         -102.0778         calculate D2E/DX2 analytically  !
 ! D19   D(7,5,10,15)           11.5917         calculate D2E/DX2 analytically  !
 ! D20   D(1,10,11,12)         116.6906         calculate D2E/DX2 analytically  !
 ! D21   D(1,10,11,13)        -127.0598         calculate D2E/DX2 analytically  !
 ! D22   D(1,10,11,16)          -2.0605         calculate D2E/DX2 analytically  !
 ! D23   D(5,10,11,12)         -10.1564         calculate D2E/DX2 analytically  !
 ! D24   D(5,10,11,13)         106.0932         calculate D2E/DX2 analytically  !
 ! D25   D(5,10,11,16)        -128.9075         calculate D2E/DX2 analytically  !
 ! D26   D(15,10,11,12)       -125.7113         calculate D2E/DX2 analytically  !
 ! D27   D(15,10,11,13)         -9.4618         calculate D2E/DX2 analytically  !
 ! D28   D(15,10,11,16)        115.5375         calculate D2E/DX2 analytically  !
 ! D29   D(1,10,15,14)          80.9748         calculate D2E/DX2 analytically  !
 ! D30   D(5,10,15,14)        -156.5788         calculate D2E/DX2 analytically  !
 ! D31   D(11,10,15,14)        -36.7777         calculate D2E/DX2 analytically  !
 --------------------------------------------------------------------------------
 Trust Radius=3.00D-01 FncErr=1.00D-07 GrdErr=1.00D-06 EigMax=2.50D+02 EigMin=1.00D-04
 Number of steps in this run=     81 maximum allowed number of steps=    100.
 Search for a saddle point of order  1.
 GradGradGradGradGradGradGradGradGradGradGradGradGradGradGradGradGradGrad

                          Input orientation:                          
 ---------------------------------------------------------------------
 Center     Atomic      Atomic             Coordinates (Angstroms)
 Number     Number       Type             X           Y           Z
 ---------------------------------------------------------------------
      1          6           0       -1.316439   -0.880256    0.491395
      2          1           0       -1.084062   -1.819439    1.011243
      3          1           0       -0.402227   -0.470969    0.040360
      4          1           0       -2.041764   -1.088490   -0.308633
      5          6           0       -3.069689   -0.408627    2.231386
      6          1           0       -3.823126   -0.909008    1.614610
      7          6           0       -3.233740   -0.307649    3.548279
      8          1           0       -2.490803    0.186067    4.175136
      9          1           0       -4.119775   -0.722960    4.029509
     10          6           0       -1.898289    0.135153    1.462434
     11          6           0       -2.226513    1.487042    0.705118
     12          1           0       -3.319205    1.646347    0.760474
     13          8           0       -1.637657    2.539975    1.347231
     14          8           0       -0.123275    1.413829    1.891821
     15          8           0       -0.900927    0.515784    2.429552
     16          1           0       -1.922661    1.398414   -0.354667
 ---------------------------------------------------------------------
                    Distance matrix (angstroms):
                    1          2          3          4          5
     1  C    0.000000
     2  H    1.098319   0.000000
     3  H    1.098514   1.796075   0.000000
     4  H    1.099774   1.787051   1.786396   0.000000
     5  C    2.514734   2.724308   3.452511   2.823214   0.000000
     6  H    2.746983   2.948798   3.791133   2.627609   1.094742
     7  C    3.653555   3.652831   4.511057   4.111726   1.330908
     8  H    4.010751   4.001399   4.678698   4.682982   2.113512
     9  H    4.516822   4.419021   5.458660   4.824025   2.105880
    10  C    1.520698   2.164941   2.151251   2.157444   1.503051
    11  C    2.545194   3.511655   2.757486   2.774020   2.575655
    12  H    3.235305   4.131637   3.675643   3.202215   2.539441
    13  O    3.540285   4.407249   3.507133   4.008858   3.395099
    14  O    2.940690   3.486051   2.656725   3.845023   3.481093
    15  O    2.424465   2.738322   2.632607   3.372367   2.365869
    16  H    2.505127   3.594932   2.441794   2.490180   3.356894
                    6          7          8          9         10
     6  H    0.000000
     7  C    2.109048   0.000000
     8  H    3.087162   1.090257   0.000000
     9  H    2.440154   1.090469   1.871119   0.000000
    10  C    2.195092   2.515999   2.777124   3.501604   0.000000
    11  C    3.019504   3.509841   3.715294   4.418159   1.583939
    12  H    2.741044   3.405475   3.805073   4.115959   2.189853
    13  O    4.091852   3.937138   3.777008   4.899211   2.421646
    14  O    4.377364   3.922032   3.510857   5.010747   2.229363
    15  O    3.351628   2.715071   2.384006   3.802017   1.440461
    16  H    3.579667   4.456744   4.723525   5.343083   2.213205
                   11         12         13         14         15
    11  C    0.000000
    12  H    1.105630   0.000000
    13  O    1.366649   1.992601   0.000000
    14  O    2.416037   3.398232   1.964214   0.000000
    15  O    2.382056   3.148343   2.410713   1.303987   0.000000
    16  H    1.106040   1.804258   2.069020   2.878322   3.094326
                   16
    16  H    0.000000
 Symmetry turned off by external request.
 Stoichiometry    C5H8O3
 Framework group  C1[X(C5H8O3)]
 Deg. of freedom    42
 Full point group                 C1      NOp   1
 Rotational constants (GHZ):           2.8299069           1.8250679           1.6743667
 Standard basis: CC-pVTZ (5D, 7F)
   352 basis functions,   552 primitive gaussians,   400 cartesian basis functions
    31 alpha electrons       31 beta electrons
       nuclear repulsion energy       397.6283362439 Hartrees.
 NAtoms=   16 NActive=   16 NUniq=   16 SFac= 1.00D+00 NAtFMM=   60 NAOKFM=F Big=F
 Integral buffers will be    131072 words long.
 Raffenetti 2 integral format.
 Two-electron integral symmetry is turned off.
 Nuclear repulsion after empirical dispersion term =      397.6279427564 Hartrees.
 One-electron integrals computed using PRISM.
 NBasis=   352 RedAO= T EigKep=  3.23D-04  NBF=   352
 NBsUse=   352 1.00D-06 EigRej= -1.00D+00 NBFU=   352
 ExpMin= 1.03D-01 ExpMax= 1.53D+04 ExpMxC= 5.22D+02 IAcc=3 IRadAn=         5 AccDes= 0.00D+00
 Harris functional with IExCor= 1009 and IRadAn=       5 diagonalized for initial guess.
 HarFok:  IExCor= 1009 AccDes= 0.00D+00 IRadAn=         5 IDoV= 1 UseB2=F ITyADJ=14
 ICtDFT=  3500011 ScaDFX=  1.000000  1.000000  1.000000  1.000000
 FoFCou: FMM=F IPFlag=           0 FMFlag=      100000 FMFlg1=           0
         NFxFlg=           0 DoJE=T BraDBF=F KetDBF=T FulRan=T
         wScrn=  0.000000 ICntrl=       500 IOpCl=  0 I1Cent=   200000004 NGrid=           0
         NMat0=    1 NMatS0=      1 NMatT0=    0 NMatD0=    1 NMtDS0=    0 NMtDT0=    0
 Symmetry not used in FoFCou.
 Mixing orbitals, IMix= 1 IMixAn=  0 NRI=1 NE=   31 Coef=  7.07106781D-01  7.07106781D-01
 Mixing orbitals, IMix= 1 IMixAn=  0 NRI=1 NE=   31 Coef= -7.07106781D-01  7.07106781D-01
 Initial guess <Sx>= 0.0000 <Sy>= 0.0000 <Sz>= 0.0000 <S**2>= 1.0000 S= 0.6180
 Requested convergence on RMS density matrix=1.00D-08 within 128 cycles.
 Requested convergence on MAX density matrix=1.00D-06.
 Requested convergence on             energy=1.00D-06.
 No special actions if energy rises.
 Integral accuracy reduced to 1.0D-05 until final iterations.
 Initial convergence to 1.0D-05 achieved.  Increase integral accuracy.
 SCF Done:  E(UM062X) =  -420.750888774     A.U. after   30 cycles
            NFock= 30  Conv=0.89D-08     -V/T= 2.0058
 <Sx>= 0.0000 <Sy>= 0.0000 <Sz>= 0.0000 <S**2>= 0.6667 S= 0.4574
 <L.S>=  0.00000000000    
 Annihilation of the first spin contaminant:
 S**2 before annihilation     0.6667,   after     0.0200
 DoSCS=F DFT=T ScalE2(SS,OS)=  1.000000  1.000000
 Range of M.O.s used for correlation:     1   352
 NBasis=   352 NAE=    31 NBE=    31 NFC=     0 NFV=     0
 NROrb=    352 NOA=    31 NOB=    31 NVA=   321 NVB=   321

 **** Warning!!: The largest alpha MO coefficient is  0.12224891D+02


 **** Warning!!: The largest beta MO coefficient is  0.11926324D+02

 Symmetrizing basis deriv contribution to polar:
 IMax=3 JMax=2 DiffMx= 0.00D+00
 G2DrvN: will do    17 centers at a time, making    1 passes.
 Calling FoFCou, ICntrl=  3107 FMM=F I1Cent=   0 AccDes= 0.00D+00.
 End of G2Drv F.D. properties file   721 does not exist.
 End of G2Drv F.D. properties file   722 does not exist.
 End of G2Drv F.D. properties file   788 does not exist.
          IDoAtm=1111111111111111
          Differentiating once with respect to nuclear coordinates.
 CalDSu exits because no D1Ps are significant.
          There are    51 degrees of freedom in the 1st order CPHF.  IDoFFX=6 NUNeed=     0.
     45 vectors produced by pass  0 Test12= 3.90D-14 1.96D-09 XBig12= 1.62D-01 1.55D-01.
 AX will form    45 AO Fock derivatives at one time.
     45 vectors produced by pass  1 Test12= 3.90D-14 1.96D-09 XBig12= 1.27D-02 2.81D-02.
     45 vectors produced by pass  2 Test12= 3.90D-14 1.96D-09 XBig12= 3.18D-04 2.76D-03.
     45 vectors produced by pass  3 Test12= 3.90D-14 1.96D-09 XBig12= 4.93D-06 3.36D-04.
     45 vectors produced by pass  4 Test12= 3.90D-14 1.96D-09 XBig12= 7.10D-08 2.85D-05.
     45 vectors produced by pass  5 Test12= 3.90D-14 1.96D-09 XBig12= 8.33D-10 2.53D-06.
     45 vectors produced by pass  6 Test12= 3.90D-14 1.96D-09 XBig12= 6.56D-12 2.72D-07.
     27 vectors produced by pass  7 Test12= 3.90D-14 1.96D-09 XBig12= 4.69D-14 2.16D-08.
      1 vectors produced by pass  8 Test12= 3.90D-14 1.96D-09 XBig12= 3.81D-16 1.98D-09.
 InvSVY:  IOpt=1 It=  1 EMax= 6.11D-16
 Solved reduced A of dimension   343 with    51 vectors.
 End of Minotr F.D. properties file   721 does not exist.
 End of Minotr F.D. properties file   722 does not exist.
 End of Minotr F.D. properties file   788 does not exist.

 **********************************************************************

            Population analysis using the SCF density.

 **********************************************************************

 Alpha  occ. eigenvalues --  -19.74141 -19.71697 -19.66948 -10.63385 -10.60560
 Alpha  occ. eigenvalues --  -10.56450 -10.55578 -10.55132  -1.33132  -1.15356
 Alpha  occ. eigenvalues --   -1.00360  -0.88644  -0.85661  -0.77581  -0.71408
 Alpha  occ. eigenvalues --   -0.67224  -0.59917  -0.58670  -0.56281  -0.55772
 Alpha  occ. eigenvalues --   -0.52491  -0.51781  -0.49582  -0.47883  -0.46729
 Alpha  occ. eigenvalues --   -0.44195  -0.42858  -0.39971  -0.37295  -0.34497
 Alpha  occ. eigenvalues --   -0.33465
 Alpha virt. eigenvalues --   -0.06249   0.02627   0.06042   0.08831   0.09944
 Alpha virt. eigenvalues --    0.11366   0.12469   0.13225   0.14504   0.15184
 Alpha virt. eigenvalues --    0.15752   0.17283   0.18544   0.22610   0.24037
 Alpha virt. eigenvalues --    0.26419   0.27643   0.30308   0.32477   0.32745
 Alpha virt. eigenvalues --    0.35211   0.36127   0.38119   0.39592   0.41450
 Alpha virt. eigenvalues --    0.41994   0.43308   0.45213   0.45833   0.46055
 Alpha virt. eigenvalues --    0.46175   0.47607   0.48604   0.49075   0.49490
 Alpha virt. eigenvalues --    0.49871   0.51206   0.52636   0.54993   0.55416
 Alpha virt. eigenvalues --    0.58172   0.60711   0.61169   0.62376   0.64718
 Alpha virt. eigenvalues --    0.66749   0.67348   0.71010   0.73357   0.74419
 Alpha virt. eigenvalues --    0.76126   0.78046   0.80474   0.81749   0.83076
 Alpha virt. eigenvalues --    0.85023   0.87350   0.89586   0.92871   0.93153
 Alpha virt. eigenvalues --    0.93572   0.94567   0.95051   0.98277   0.99269
 Alpha virt. eigenvalues --    1.00995   1.02284   1.03704   1.05294   1.07310
 Alpha virt. eigenvalues --    1.09222   1.09558   1.10787   1.11412   1.15557
 Alpha virt. eigenvalues --    1.17852   1.19079   1.19661   1.21592   1.22751
 Alpha virt. eigenvalues --    1.24231   1.25542   1.27972   1.28764   1.28893
 Alpha virt. eigenvalues --    1.31890   1.32978   1.33944   1.36900   1.37398
 Alpha virt. eigenvalues --    1.38883   1.39969   1.40928   1.44432   1.46093
 Alpha virt. eigenvalues --    1.47985   1.49078   1.51533   1.52683   1.56609
 Alpha virt. eigenvalues --    1.58456   1.59399   1.61621   1.65011   1.66828
 Alpha virt. eigenvalues --    1.71231   1.74274   1.79776   1.82438   1.88215
 Alpha virt. eigenvalues --    1.89027   1.93305   2.02112   2.06255   2.08905
 Alpha virt. eigenvalues --    2.09731   2.12701   2.14894   2.18031   2.19816
 Alpha virt. eigenvalues --    2.23461   2.27093   2.28714   2.31803   2.33849
 Alpha virt. eigenvalues --    2.36273   2.37931   2.39669   2.40775   2.42783
 Alpha virt. eigenvalues --    2.44999   2.47112   2.51956   2.54714   2.56586
 Alpha virt. eigenvalues --    2.58725   2.59124   2.63374   2.67140   2.70490
 Alpha virt. eigenvalues --    2.72558   2.75712   2.76149   2.80537   2.81330
 Alpha virt. eigenvalues --    2.82281   2.84526   2.84929   2.88087   2.89742
 Alpha virt. eigenvalues --    2.90847   2.92139   2.93533   2.94748   2.96220
 Alpha virt. eigenvalues --    2.96947   2.98297   2.99412   3.00791   3.02065
 Alpha virt. eigenvalues --    3.02579   3.04967   3.06022   3.06874   3.09225
 Alpha virt. eigenvalues --    3.11047   3.12649   3.14659   3.15700   3.17151
 Alpha virt. eigenvalues --    3.18601   3.19102   3.20893   3.22063   3.25081
 Alpha virt. eigenvalues --    3.25574   3.26685   3.29158   3.31328   3.32782
 Alpha virt. eigenvalues --    3.36119   3.37358   3.38454   3.41784   3.42864
 Alpha virt. eigenvalues --    3.43932   3.47408   3.48241   3.49360   3.52662
 Alpha virt. eigenvalues --    3.53132   3.55436   3.56127   3.60726   3.62085
 Alpha virt. eigenvalues --    3.64383   3.67260   3.68797   3.70214   3.71478
 Alpha virt. eigenvalues --    3.71878   3.76901   3.78876   3.80602   3.81513
 Alpha virt. eigenvalues --    3.82984   3.83113   3.83997   3.88042   3.88920
 Alpha virt. eigenvalues --    3.91025   3.92615   3.94205   3.95217   3.96968
 Alpha virt. eigenvalues --    3.98447   4.00379   4.01621   4.02737   4.03439
 Alpha virt. eigenvalues --    4.05230   4.06451   4.09098   4.11493   4.15744
 Alpha virt. eigenvalues --    4.16370   4.18837   4.20429   4.22074   4.23684
 Alpha virt. eigenvalues --    4.24645   4.26491   4.29684   4.33768   4.34533
 Alpha virt. eigenvalues --    4.38225   4.39320   4.44287   4.48124   4.53600
 Alpha virt. eigenvalues --    4.54929   4.60292   4.64588   4.65913   4.67905
 Alpha virt. eigenvalues --    4.70432   4.71640   4.74482   4.75966   4.78628
 Alpha virt. eigenvalues --    4.79185   4.80518   4.81384   4.87720   4.89689
 Alpha virt. eigenvalues --    4.90184   4.91258   4.93076   4.95349   4.96919
 Alpha virt. eigenvalues --    5.00641   5.03044   5.06462   5.07265   5.09268
 Alpha virt. eigenvalues --    5.11241   5.12711   5.16725   5.16995   5.17934
 Alpha virt. eigenvalues --    5.21474   5.24360   5.25700   5.27046   5.28534
 Alpha virt. eigenvalues --    5.32069   5.34354   5.34895   5.37197   5.48333
 Alpha virt. eigenvalues --    5.50956   5.55193   5.59724   5.65649   5.72232
 Alpha virt. eigenvalues --    5.76102   5.78889   5.80723   5.82617   5.87229
 Alpha virt. eigenvalues --    5.90247   6.00853   6.02105   6.08440   6.15616
 Alpha virt. eigenvalues --    6.23580   6.27950   6.33534   6.37463   6.45854
 Alpha virt. eigenvalues --    6.48433   6.51980   6.68407   6.76018   6.80032
 Alpha virt. eigenvalues --    6.82730   6.86739   6.91680   7.04203   7.12951
 Alpha virt. eigenvalues --    7.25071   7.27965   7.47058   9.60311  10.31368
 Alpha virt. eigenvalues --   10.91563  11.35913  11.75461  12.53856  13.66724
 Alpha virt. eigenvalues --   14.03072
  Beta  occ. eigenvalues --  -19.74751 -19.72683 -19.65688 -10.63329 -10.60619
  Beta  occ. eigenvalues --  -10.56456 -10.55591 -10.55131  -1.35435  -1.10971
  Beta  occ. eigenvalues --   -1.02537  -0.89663  -0.85680  -0.76811  -0.71361
  Beta  occ. eigenvalues --   -0.67270  -0.61992  -0.60673  -0.56597  -0.54811
  Beta  occ. eigenvalues --   -0.52701  -0.50924  -0.49284  -0.48491  -0.46781
  Beta  occ. eigenvalues --   -0.43756  -0.43289  -0.38588  -0.36473  -0.35802
  Beta  occ. eigenvalues --   -0.32766
  Beta virt. eigenvalues --   -0.06427   0.02638   0.05955   0.08797   0.09853
  Beta virt. eigenvalues --    0.11293   0.12370   0.13119   0.14567   0.15144
  Beta virt. eigenvalues --    0.15720   0.17080   0.18404   0.22311   0.23928
  Beta virt. eigenvalues --    0.26214   0.27646   0.30289   0.32422   0.32775
  Beta virt. eigenvalues --    0.35248   0.36096   0.38150   0.39708   0.41512
  Beta virt. eigenvalues --    0.41966   0.43334   0.45534   0.45851   0.46075
  Beta virt. eigenvalues --    0.46127   0.47652   0.48628   0.49112   0.49495
  Beta virt. eigenvalues --    0.49828   0.51184   0.52692   0.55029   0.55431
  Beta virt. eigenvalues --    0.58126   0.60762   0.61070   0.62340   0.64685
  Beta virt. eigenvalues --    0.66573   0.67334   0.70823   0.73305   0.73983
  Beta virt. eigenvalues --    0.75957   0.77914   0.79965   0.81927   0.83144
  Beta virt. eigenvalues --    0.85321   0.87372   0.89434   0.92790   0.93131
  Beta virt. eigenvalues --    0.93885   0.94662   0.94924   0.98515   0.99278
  Beta virt. eigenvalues --    1.01001   1.02481   1.03757   1.05333   1.07442
  Beta virt. eigenvalues --    1.09326   1.09561   1.10857   1.11481   1.15570
  Beta virt. eigenvalues --    1.17757   1.19164   1.19748   1.21555   1.22875
  Beta virt. eigenvalues --    1.24104   1.25906   1.28090   1.28748   1.28869
  Beta virt. eigenvalues --    1.31891   1.32937   1.33934   1.36748   1.37157
  Beta virt. eigenvalues --    1.38927   1.39563   1.40927   1.44567   1.46028
  Beta virt. eigenvalues --    1.47939   1.48944   1.51452   1.52644   1.56423
  Beta virt. eigenvalues --    1.58311   1.59304   1.61408   1.64413   1.66574
  Beta virt. eigenvalues --    1.71182   1.73821   1.80488   1.82785   1.88409
  Beta virt. eigenvalues --    1.89168   1.93820   2.02591   2.06222   2.08726
  Beta virt. eigenvalues --    2.09721   2.12867   2.15253   2.17632   2.19464
  Beta virt. eigenvalues --    2.23235   2.27034   2.28858   2.31747   2.33722
  Beta virt. eigenvalues --    2.36396   2.38106   2.39637   2.40794   2.42909
  Beta virt. eigenvalues --    2.44930   2.47125   2.51875   2.54651   2.56498
  Beta virt. eigenvalues --    2.58692   2.59106   2.63359   2.67130   2.70516
  Beta virt. eigenvalues --    2.72545   2.75670   2.76145   2.80543   2.81309
  Beta virt. eigenvalues --    2.82300   2.84490   2.84967   2.88052   2.89815
  Beta virt. eigenvalues --    2.90837   2.92026   2.93478   2.94715   2.96192
  Beta virt. eigenvalues --    2.96861   2.98199   2.99306   3.00576   3.02060
  Beta virt. eigenvalues --    3.02605   3.04926   3.06013   3.06804   3.09166
  Beta virt. eigenvalues --    3.10967   3.12681   3.14507   3.15659   3.17164
  Beta virt. eigenvalues --    3.18590   3.19104   3.20855   3.21967   3.25037
  Beta virt. eigenvalues --    3.25662   3.26653   3.29057   3.31313   3.32880
  Beta virt. eigenvalues --    3.36082   3.37602   3.38578   3.41734   3.43252
  Beta virt. eigenvalues --    3.43963   3.47629   3.48463   3.49313   3.52756
  Beta virt. eigenvalues --    3.53078   3.55381   3.56037   3.60511   3.62151
  Beta virt. eigenvalues --    3.64345   3.67184   3.68452   3.68837   3.71374
  Beta virt. eigenvalues --    3.71869   3.76831   3.79006   3.79647   3.80617
  Beta virt. eigenvalues --    3.81595   3.83222   3.84178   3.87646   3.88798
  Beta virt. eigenvalues --    3.91102   3.92643   3.94775   3.95175   3.96955
  Beta virt. eigenvalues --    3.98314   4.00312   4.01654   4.02673   4.03806
  Beta virt. eigenvalues --    4.05117   4.06381   4.09211   4.11679   4.15866
  Beta virt. eigenvalues --    4.16149   4.18697   4.21293   4.21887   4.24251
  Beta virt. eigenvalues --    4.25140   4.26957   4.29683   4.33866   4.34749
  Beta virt. eigenvalues --    4.38299   4.39291   4.44360   4.48288   4.53625
  Beta virt. eigenvalues --    4.54939   4.60257   4.64524   4.65698   4.67981
  Beta virt. eigenvalues --    4.70382   4.71665   4.74206   4.75964   4.78407
  Beta virt. eigenvalues --    4.78798   4.80302   4.81059   4.87671   4.89432
  Beta virt. eigenvalues --    4.90115   4.90708   4.92929   4.96030   4.97168
  Beta virt. eigenvalues --    5.00961   5.03088   5.06248   5.07205   5.09309
  Beta virt. eigenvalues --    5.11225   5.12762   5.16151   5.16690   5.17232
  Beta virt. eigenvalues --    5.20853   5.24576   5.25566   5.27172   5.28874
  Beta virt. eigenvalues --    5.33475   5.34544   5.35109   5.37179   5.49234
  Beta virt. eigenvalues --    5.52292   5.56160   5.59901   5.65405   5.71951
  Beta virt. eigenvalues --    5.75977   5.78872   5.80823   5.82467   5.87898
  Beta virt. eigenvalues --    5.92201   6.01292   6.02079   6.09512   6.15074
  Beta virt. eigenvalues --    6.20472   6.28664   6.33515   6.37426   6.42788
  Beta virt. eigenvalues --    6.46200   6.54867   6.69347   6.76735   6.78770
  Beta virt. eigenvalues --    6.83934   6.89570   6.97065   7.07208   7.11355
  Beta virt. eigenvalues --    7.25609   7.28470   7.45875   9.60155  10.31644
  Beta virt. eigenvalues --   10.91470  11.36022  11.75216  12.53581  13.66724
  Beta virt. eigenvalues --   14.03077
          Condensed to atoms (all electrons):
               1          2          3          4          5          6
     1  C    5.036840   0.392729   0.386268   0.395347  -0.081681  -0.001471
     2  H    0.392729   0.536841  -0.019014  -0.030244  -0.002260   0.000154
     3  H    0.386268  -0.019014   0.530191  -0.031559   0.012011  -0.000163
     4  H    0.395347  -0.030244  -0.031559   0.580488  -0.009060   0.001180
     5  C   -0.081681  -0.002260   0.012011  -0.009060   5.152310   0.398590
     6  H   -0.001471   0.000154  -0.000163   0.001180   0.398590   0.519659
     7  C    0.004647   0.001243  -0.000077   0.000016   0.545377  -0.032091
     8  H    0.000896   0.000119  -0.000003  -0.000067  -0.056218   0.005040
     9  H   -0.000193  -0.000048   0.000025  -0.000024  -0.057888  -0.009082
    10  C    0.305044  -0.030370  -0.023037  -0.035873   0.329431  -0.047255
    11  C   -0.045483   0.007391  -0.007860   0.000084  -0.042448  -0.002254
    12  H   -0.000410  -0.000351   0.000085   0.000236   0.001636  -0.001835
    13  O    0.002752  -0.000228  -0.000263   0.000158   0.001117   0.000096
    14  O   -0.009074   0.000103   0.010997  -0.000419   0.005538  -0.000263
    15  O   -0.026987  -0.000797  -0.008431   0.004128  -0.048359   0.002621
    16  H    0.015028   0.000117  -0.001700  -0.002896   0.003099   0.000424
               7          8          9         10         11         12
     1  C    0.004647   0.000896  -0.000193   0.305044  -0.045483  -0.000410
     2  H    0.001243   0.000119  -0.000048  -0.030370   0.007391  -0.000351
     3  H   -0.000077  -0.000003   0.000025  -0.023037  -0.007860   0.000085
     4  H    0.000016  -0.000067  -0.000024  -0.035873   0.000084   0.000236
     5  C    0.545377  -0.056218  -0.057888   0.329431  -0.042448   0.001636
     6  H   -0.032091   0.005040  -0.009082  -0.047255  -0.002254  -0.001835
     7  C    4.985104   0.415540   0.419320  -0.072769   0.003233   0.001361
     8  H    0.415540   0.514551  -0.032669  -0.008166   0.000344   0.000139
     9  H    0.419320  -0.032669   0.556484   0.006113  -0.000065  -0.000208
    10  C   -0.072769  -0.008166   0.006113   5.163887   0.264341  -0.023767
    11  C    0.003233   0.000344  -0.000065   0.264341   4.724313   0.389530
    12  H    0.001361   0.000139  -0.000208  -0.023767   0.389530   0.589749
    13  O    0.002432   0.000227   0.000056  -0.048192   0.364982  -0.033184
    14  O   -0.000640  -0.000721   0.000002  -0.052005  -0.013519   0.003320
    15  O    0.011933   0.008950   0.000250   0.244217  -0.042779   0.001279
    16  H    0.000124  -0.000037   0.000036  -0.087929   0.417672  -0.063278
              13         14         15         16
     1  C    0.002752  -0.009074  -0.026987   0.015028
     2  H   -0.000228   0.000103  -0.000797   0.000117
     3  H   -0.000263   0.010997  -0.008431  -0.001700
     4  H    0.000158  -0.000419   0.004128  -0.002896
     5  C    0.001117   0.005538  -0.048359   0.003099
     6  H    0.000096  -0.000263   0.002621   0.000424
     7  C    0.002432  -0.000640   0.011933   0.000124
     8  H    0.000227  -0.000721   0.008950  -0.000037
     9  H    0.000056   0.000002   0.000250   0.000036
    10  C   -0.048192  -0.052005   0.244217  -0.087929
    11  C    0.364982  -0.013519  -0.042779   0.417672
    12  H   -0.033184   0.003320   0.001279  -0.063278
    13  O    7.995701   0.017079  -0.032469  -0.049644
    14  O    0.017079   8.046048   0.100668  -0.001544
    15  O   -0.032469   0.100668   7.833325   0.003194
    16  H   -0.049644  -0.001544   0.003194   0.677019
          Atomic-Atomic Spin Densities.
               1          2          3          4          5          6
     1  C   -0.027207  -0.000253  -0.000733   0.000716  -0.000378  -0.000988
     2  H   -0.000253   0.006196   0.000072  -0.001179   0.000204   0.000081
     3  H   -0.000733   0.000072   0.002229   0.000418   0.000350  -0.000032
     4  H    0.000716  -0.001179   0.000418   0.003957   0.000630   0.000151
     5  C   -0.000378   0.000204   0.000350   0.000630  -0.005516   0.000543
     6  H   -0.000988   0.000081  -0.000032   0.000151   0.000543  -0.000743
     7  C   -0.000687   0.000185   0.000005  -0.000049   0.004150  -0.000500
     8  H   -0.000107   0.000020  -0.000002  -0.000004   0.000127  -0.000023
     9  H   -0.000020   0.000010   0.000000  -0.000002  -0.000077  -0.000037
    10  C    0.005274  -0.000294  -0.001223  -0.003233  -0.005835   0.001405
    11  C    0.005498  -0.000573   0.000548  -0.000254   0.002635   0.000156
    12  H    0.001660  -0.000178  -0.000044   0.000267   0.000843  -0.000118
    13  O    0.000843  -0.000128  -0.000167   0.000112   0.001105  -0.000018
    14  O   -0.001815   0.000454  -0.000422  -0.000053  -0.001208   0.000002
    15  O    0.007565  -0.001062   0.001231   0.000091   0.002621  -0.000017
    16  H   -0.004063   0.000234  -0.000388   0.000003   0.000171  -0.000052
               7          8          9         10         11         12
     1  C   -0.000687  -0.000107  -0.000020   0.005274   0.005498   0.001660
     2  H    0.000185   0.000020   0.000010  -0.000294  -0.000573  -0.000178
     3  H    0.000005  -0.000002   0.000000  -0.001223   0.000548  -0.000044
     4  H   -0.000049  -0.000004  -0.000002  -0.003233  -0.000254   0.000267
     5  C    0.004150   0.000127  -0.000077  -0.005835   0.002635   0.000843
     6  H   -0.000500  -0.000023  -0.000037   0.001405   0.000156  -0.000118
     7  C    0.001517   0.000034  -0.000092  -0.001896  -0.000266  -0.000108
     8  H    0.000034   0.000424  -0.000019  -0.000076   0.000052  -0.000029
     9  H   -0.000092  -0.000019  -0.000060  -0.000004  -0.000015  -0.000017
    10  C   -0.001896  -0.000076  -0.000004   0.062075   0.011858  -0.018599
    11  C   -0.000266   0.000052  -0.000015   0.011858  -0.079382   0.018439
    12  H   -0.000108  -0.000029  -0.000017  -0.018599   0.018439   0.076586
    13  O   -0.000325  -0.000127  -0.000006  -0.016417  -0.025542  -0.013259
    14  O    0.000241   0.000135   0.000003   0.014728   0.001308  -0.001029
    15  O   -0.000493   0.000359   0.000033  -0.019081   0.006282   0.000447
    16  H   -0.000056  -0.000006  -0.000001   0.010622   0.001547  -0.004115
              13         14         15         16
     1  C    0.000843  -0.001815   0.007565  -0.004063
     2  H   -0.000128   0.000454  -0.001062   0.000234
     3  H   -0.000167  -0.000422   0.001231  -0.000388
     4  H    0.000112  -0.000053   0.000091   0.000003
     5  C    0.001105  -0.001208   0.002621   0.000171
     6  H   -0.000018   0.000002  -0.000017  -0.000052
     7  C   -0.000325   0.000241  -0.000493  -0.000056
     8  H   -0.000127   0.000135   0.000359  -0.000006
     9  H   -0.000006   0.000003   0.000033  -0.000001
    10  C   -0.016417   0.014728  -0.019081   0.010622
    11  C   -0.025542   0.001308   0.006282   0.001547
    12  H   -0.013259  -0.001029   0.000447  -0.004115
    13  O    0.816609  -0.040836  -0.001524   0.000894
    14  O   -0.040836  -0.639645   0.109590   0.001845
    15  O   -0.001524   0.109590  -0.307906  -0.000438
    16  H    0.000894   0.001845  -0.000438  -0.005545
 Mulliken charges and spin densities:
               1          2
     1  C   -0.374253  -0.014696
     2  H    0.144614   0.003791
     3  H    0.152529   0.001843
     4  H    0.128505   0.001573
     5  C   -0.151194   0.000362
     6  H    0.166650  -0.000189
     7  C   -0.284754   0.001660
     8  H    0.152074   0.000759
     9  H    0.117890  -0.000303
    10  C    0.116331   0.039303
    11  C   -0.017481  -0.057710
    12  H    0.135699   0.060745
    13  O   -0.220620   0.721214
    14  O   -0.105568  -0.556702
    15  O   -0.050742  -0.202300
    16  H    0.090317   0.000650
 Sum of Mulliken charges =  -0.00000  -0.00000
 Mulliken charges and spin densities with hydrogens summed into heavy atoms:
               1          2
     1  C    0.051396  -0.007489
     5  C    0.015456   0.000173
     7  C   -0.014789   0.002117
    10  C    0.116331   0.039303
    11  C    0.208534   0.003686
    13  O   -0.220620   0.721214
    14  O   -0.105568  -0.556702
    15  O   -0.050742  -0.202300
 APT charges:
               1
     1  C   -0.797318
     2  H    0.385501
     3  H    0.088168
     4  H    0.353363
     5  C   -0.903417
     6  H    0.546453
     7  C   -0.740320
     8  H    0.238304
     9  H    0.890938
    10  C    0.084410
    11  C   -0.796646
    12  H    0.606003
    13  O   -0.086349
    14  O   -0.042488
    15  O    0.045659
    16  H    0.127739
 Sum of APT charges =  -0.00000
 APT charges with hydrogens summed into heavy atoms:
               1
     1  C    0.029714
     5  C   -0.356964
     7  C    0.388922
    10  C    0.084410
    11  C   -0.062904
    13  O   -0.086349
    14  O   -0.042488
    15  O    0.045659
 Electronic spatial extent (au):  <R**2>=           2314.9466
 Charge=             -0.0000 electrons
 Dipole moment (field-independent basis, Debye):
    X=             -2.2427    Y=             -2.7746    Z=             -1.4272  Tot=              3.8425
 Quadrupole moment (field-independent basis, Debye-Ang):
   XX=            -39.0137   YY=            -55.1061   ZZ=            -49.3851
   XY=              2.4836   XZ=             -2.0115   YZ=             -5.1154
 Traceless Quadrupole moment (field-independent basis, Debye-Ang):
   XX=              8.8212   YY=             -7.2711   ZZ=             -1.5501
   XY=              2.4836   XZ=             -2.0115   YZ=             -5.1154
 Octapole moment (field-independent basis, Debye-Ang**2):
  XXX=            235.6475  YYY=            -87.6021  ZZZ=           -238.8709  XYY=             96.8258
  XXY=            -27.2194  XXZ=            -69.8349  XZZ=             79.0873  YZZ=            -31.1947
  YYZ=            -96.2014  XYZ=              6.9895
 Hexadecapole moment (field-independent basis, Debye-Ang**3):
 XXXX=          -1233.3822 YYYY=           -535.7594 ZZZZ=          -1144.1874 XXXY=             93.4111
 XXXZ=            460.0316 YYYX=             94.4387 YYYZ=           -117.4506 ZZZX=            456.7270
 ZZZY=           -102.9372 XXYY=           -307.8923 XXZZ=           -378.4135 YYZZ=           -311.1906
 XXYZ=            -53.5502 YYXZ=            192.4879 ZZXY=             43.0146
 N-N= 3.976279427564D+02 E-N=-1.779868582104D+03  KE= 4.183199486704D+02
  Exact polarizability:   0.000   0.000   0.000   0.000   0.000   0.000
 Approx polarizability:  86.270   4.131  83.930   0.698  -2.978  93.420
                          Isotropic Fermi Contact Couplings
        Atom                 a.u.       MegaHertz       Gauss      10(-4) cm-1
     1  C(13)             -0.00476      -2.67599      -0.95486      -0.89261
     2  H(1)               0.00160       3.57589       1.27597       1.19279
     3  H(1)               0.00031       0.69950       0.24960       0.23333
     4  H(1)               0.00038       0.84184       0.30039       0.28081
     5  C(13)             -0.00315      -1.77017      -0.63164      -0.59047
     6  H(1)               0.00006       0.14292       0.05100       0.04767
     7  C(13)              0.00012       0.06532       0.02331       0.02179
     8  H(1)              -0.00007      -0.15655      -0.05586      -0.05222
     9  H(1)              -0.00009      -0.19133      -0.06827      -0.06382
    10  C(13)              0.02345      13.18102       4.70332       4.39672
    11  C(13)             -0.03235     -18.18542      -6.48901      -6.06600
    12  H(1)               0.02705      60.45165      21.57065      20.16450
    13  O(17)              0.14660     -44.43467     -15.85540     -14.82181
    14  O(17)             -0.05879      17.81909       6.35829       5.94381
    15  O(17)             -0.03558      10.78400       3.84800       3.59715
    16  H(1)              -0.00002      -0.04754      -0.01696      -0.01586
 --------------------------------------------------------
       Center         ----  Spin Dipole Couplings  ----
                      3XX-RR        3YY-RR        3ZZ-RR
 --------------------------------------------------------
     1   Atom        0.002500      0.007758     -0.010258
     2   Atom        0.001901     -0.002521      0.000620
     3   Atom        0.003622      0.001859     -0.005481
     4   Atom       -0.001473      0.003070     -0.001597
     5   Atom       -0.005459      0.001881      0.003578
     6   Atom       -0.002410      0.002679     -0.000268
     7   Atom       -0.004815      0.004348      0.000467
     8   Atom       -0.002553      0.003122     -0.000569
     9   Atom       -0.001408      0.000920      0.000488
    10   Atom       -0.027175      0.036087     -0.008911
    11   Atom        0.002062      0.012953     -0.015015
    12   Atom        0.009723     -0.001929     -0.007794
    13   Atom        1.775575     -0.360473     -1.415102
    14   Atom       -0.487299     -0.752870      1.240169
    15   Atom       -0.121995     -0.407097      0.529092
    16   Atom       -0.007811      0.002668      0.005143
 --------------------------------------------------------
                        XY            XZ            YZ
 --------------------------------------------------------
     1   Atom       -0.000094      0.004880     -0.010756
     2   Atom       -0.001984     -0.000701     -0.002936
     3   Atom       -0.004081     -0.001708     -0.004892
     4   Atom       -0.001348     -0.002145     -0.000251
     5   Atom       -0.002979     -0.000475     -0.001019
     6   Atom        0.000079     -0.001142     -0.001093
     7   Atom       -0.002726      0.001664     -0.000998
     8   Atom       -0.001364      0.004992     -0.000325
     9   Atom       -0.000223      0.000374     -0.000548
    10   Atom       -0.027546      0.004876     -0.034919
    11   Atom        0.019128      0.000096      0.030908
    12   Atom        0.010812      0.002692      0.006346
    13   Atom       -1.857126      0.353200     -0.222123
    14   Atom        1.769367      0.654945     -0.667442
    15   Atom        0.851715      0.241623     -0.362375
    16   Atom        0.001701     -0.001803      0.012513
 --------------------------------------------------------


 ---------------------------------------------------------------------------------
              Anisotropic Spin Dipole Couplings in Principal Axis System
 ---------------------------------------------------------------------------------

       Atom             a.u.   MegaHertz   Gauss  10(-4) cm-1        Axes

              Baa    -0.0163    -2.189    -0.781    -0.730 -0.2287  0.3965  0.8891
     1 C(13)  Bbb     0.0031     0.412     0.147     0.137  0.9509  0.2868  0.1167
              Bcc     0.0132     1.777     0.634     0.593 -0.2087  0.8721 -0.4426
 
              Baa    -0.0049    -2.618    -0.934    -0.873  0.2908  0.8292  0.4774
     2 H(1)   Bbb     0.0020     1.092     0.390     0.364 -0.6096 -0.2240  0.7604
              Bcc     0.0029     1.526     0.545     0.509  0.7374 -0.5122  0.4404
 
              Baa    -0.0089    -4.735    -1.690    -1.579  0.2715  0.4827  0.8326
     3 H(1)   Bbb     0.0017     0.882     0.315     0.294  0.6583  0.5380 -0.5265
              Bcc     0.0072     3.853     1.375     1.285  0.7021 -0.6910  0.1717
 
              Baa    -0.0039    -2.062    -0.736    -0.688  0.7079  0.1624  0.6874
     4 H(1)   Bbb     0.0004     0.214     0.076     0.071 -0.6424 -0.2565  0.7221
              Bcc     0.0035     1.849     0.660     0.617 -0.2936  0.9528  0.0773
 
              Baa    -0.0066    -0.883    -0.315    -0.294  0.9374  0.3395  0.0779
     5 C(13)  Bbb     0.0024     0.324     0.116     0.108 -0.3253  0.7730  0.5447
              Bcc     0.0042     0.558     0.199     0.186  0.1247 -0.5359  0.8350
 
              Baa    -0.0029    -1.563    -0.558    -0.521  0.9063  0.0685  0.4170
     6 H(1)   Bbb    -0.0001    -0.078    -0.028    -0.026 -0.4143  0.3385  0.8448
              Bcc     0.0031     1.641     0.586     0.547  0.0833  0.9385 -0.3351
 
              Baa    -0.0059    -0.786    -0.280    -0.262  0.9490  0.2327 -0.2130
     7 C(13)  Bbb     0.0004     0.048     0.017     0.016  0.1310  0.3236  0.9371
              Bcc     0.0055     0.738     0.263     0.246 -0.2869  0.9172 -0.2766
 
              Baa    -0.0067    -3.588    -1.280    -1.197  0.7760  0.0869 -0.6247
     8 H(1)   Bbb     0.0022     1.194     0.426     0.398  0.3582  0.7545  0.5499
              Bcc     0.0045     2.394     0.854     0.799 -0.5192  0.6505 -0.5544
 
              Baa    -0.0015    -0.792    -0.283    -0.264  0.9837  0.0520 -0.1723
     9 H(1)   Bbb     0.0001     0.072     0.026     0.024  0.1089  0.5897  0.8002
              Bcc     0.0013     0.720     0.257     0.240 -0.1432  0.8059 -0.5744
 
              Baa    -0.0407    -5.465    -1.950    -1.823  0.7999  0.4614  0.3838
    10 C(13)  Bbb    -0.0223    -2.990    -1.067    -0.997 -0.5284  0.2382  0.8149
              Bcc     0.0630     8.454     3.017     2.820 -0.2845  0.8547 -0.4343
 
              Baa    -0.0379    -5.082    -1.814    -1.695  0.2724 -0.5727  0.7732
    11 C(13)  Bbb    -0.0021    -0.287    -0.102    -0.096  0.8736 -0.1895 -0.4482
              Bcc     0.0400     5.369     1.916     1.791  0.4031  0.7976  0.4487
 
              Baa    -0.0127    -6.777    -2.418    -2.260  0.2290 -0.6544  0.7206
    12 H(1)   Bbb    -0.0047    -2.527    -0.902    -0.843 -0.5259  0.5397  0.6573
              Bcc     0.0174     9.304     3.320     3.104  0.8191  0.5295  0.2206
 
              Baa    -1.4636   105.908    37.791    35.327  0.1615  0.4489  0.8789
    13 O(17)  Bbb    -1.4266   103.230    36.835    34.434  0.4816  0.7415 -0.4672
              Bcc     2.8903  -209.138   -74.625   -69.761  0.8614 -0.4987  0.0964
 
              Baa    -2.6207   189.635    67.667    63.255 -0.6622  0.7114  0.2353
    14 O(17)  Bbb     1.1522   -83.373   -29.750   -27.810  0.7167  0.6930 -0.0781
              Bcc     1.4685  -106.262   -37.917   -35.445  0.2186 -0.1170  0.9688
 
              Baa    -1.2344    89.317    31.871    29.793 -0.6225  0.7454  0.2385
    15 O(17)  Bbb     0.5656   -40.928   -14.604   -13.652  0.7184  0.4233  0.5520
              Bcc     0.6687   -48.390   -17.267   -16.141 -0.3105 -0.5150  0.7990
 
              Baa    -0.0107    -5.735    -2.046    -1.913  0.6439 -0.5639  0.5171
    16 H(1)   Bbb    -0.0057    -3.058    -1.091    -1.020  0.7650  0.4817 -0.4274
              Bcc     0.0165     8.793     3.138     2.933 -0.0081  0.6708  0.7416
 

 ---------------------------------------------------------------------------------

 Calling FoFJK, ICntrl=    100147 FMM=F ISym2X=0 I1Cent= 0 IOpClX= 1 NMat=1 NMatS=1 NMatT=0.
 -------------------------------------------------------------------
 Center     Atomic                   Forces (Hartrees/Bohr)
 Number     Number              X              Y              Z
 -------------------------------------------------------------------
      1        6           0.001779568   -0.002865173   -0.002553582
      2        1          -0.001426259    0.005310738   -0.002949451
      3        1          -0.005246627   -0.002500541    0.002236030
      4        1           0.003974034    0.001258235    0.004474280
      5        6          -0.003449777   -0.001123621    0.005236368
      6        1           0.004503038    0.002967596    0.003615741
      7        6           0.000289119   -0.000507816   -0.004076720
      8        1          -0.005001445   -0.003122052   -0.003246014
      9        1           0.005505088    0.002619026   -0.002701190
     10        6          -0.000607171   -0.000606315    0.000997295
     11        6          -0.003148861    0.000076862   -0.003906221
     12        1           0.005512926   -0.000726740   -0.000327795
     13        8          -0.001584331   -0.001219205   -0.001581091
     14        8           0.000348661   -0.000863622    0.000702146
     15        8          -0.000235359    0.000337989   -0.002241494
     16        1          -0.001212603    0.000964639    0.006321696
 -------------------------------------------------------------------
 Cartesian Forces:  Max     0.006321696 RMS     0.003013252
 FormGI is forming the generalized inverse of G from B-inverse, IUseBI=4.

 GradGradGradGradGradGradGradGradGradGradGradGradGradGradGradGradGradGrad
 Berny optimization.
 Internal  Forces:  Max     0.010095582 RMS     0.002531737
 Search for a saddle point.
 Step number   1 out of a maximum of   81
 All quantities printed in internal units (Hartrees-Bohrs-Radians)
 Swapping is turned off.
 Second derivative matrix not updated -- analytic derivatives used.
 ITU=  0
     Eigenvalues ---   -0.80873   0.00047   0.00216   0.00345   0.01850
     Eigenvalues ---    0.03231   0.04043   0.04328   0.04387   0.04460
     Eigenvalues ---    0.04801   0.05164   0.06814   0.07478   0.09542
     Eigenvalues ---    0.10260   0.11071   0.11304   0.12334   0.13274
     Eigenvalues ---    0.14322   0.14577   0.15766   0.18309   0.20035
     Eigenvalues ---    0.21422   0.23160   0.27285   0.29967   0.30510
     Eigenvalues ---    0.30838   0.32591   0.32822   0.33257   0.33806
     Eigenvalues ---    0.33956   0.34754   0.35432   0.37226   0.43186
     Eigenvalues ---    0.63030   0.67883
 Eigenvectors required to have negative eigenvalues:
                          A20       A25       A18       D31       A22
   1                    0.40992   0.39314   0.30590  -0.26656  -0.20542
                          D30       D29       A16       A15       D27
   1                   -0.19935  -0.18561  -0.17625  -0.17582  -0.16795
 RFO step:  Lambda0=8.074500116D-06 Lambda=-1.24785321D-03.
 Linear search not attempted -- option 19 set.
 Iteration  1 RMS(Cart)=  0.01827136 RMS(Int)=  0.00020792
 Iteration  2 RMS(Cart)=  0.00022037 RMS(Int)=  0.00000364
 Iteration  3 RMS(Cart)=  0.00000005 RMS(Int)=  0.00000364
 Variable       Old X    -DE/DX   Delta X   Delta X   Delta X     New X
                                 (Linear)    (Quad)   (Total)
    R1        2.07552  -0.00624   0.00000  -0.01868  -0.01868   2.05685
    R2        2.07589  -0.00622   0.00000  -0.01854  -0.01854   2.05735
    R3        2.07827  -0.00611   0.00000  -0.01800  -0.01800   2.06027
    R4        2.87370  -0.00193   0.00000  -0.00477  -0.00477   2.86893
    R5        2.06876  -0.00649   0.00000  -0.01850  -0.01850   2.05027
    R6        2.51505  -0.01010   0.00000  -0.01633  -0.01633   2.49872
    R7        2.84035  -0.00234   0.00000  -0.00768  -0.00768   2.83268
    R8        2.06029  -0.00669   0.00000  -0.01849  -0.01849   2.04180
    R9        2.06069  -0.00666   0.00000  -0.01854  -0.01854   2.04215
   R10        2.99321  -0.00093   0.00000  -0.00737  -0.00737   2.98584
   R11        2.72208  -0.00109   0.00000  -0.00448  -0.00448   2.71759
   R12        2.08934  -0.00557   0.00000  -0.01777  -0.01777   2.07157
   R13        2.58259  -0.00236   0.00000  -0.00225  -0.00225   2.58034
   R14        2.09011  -0.00647   0.00000  -0.02055  -0.02055   2.06956
   R15        2.46418  -0.00068   0.00000  -0.00034  -0.00034   2.46384
    A1        1.91437  -0.00007   0.00000   0.00117   0.00116   1.91553
    A2        1.89857   0.00006   0.00000  -0.00045  -0.00045   1.89812
    A3        1.92805  -0.00007   0.00000   0.00011   0.00010   1.92815
    A4        1.89730  -0.00017   0.00000  -0.00163  -0.00162   1.89568
    A5        1.90903   0.00053   0.00000   0.00443   0.00443   1.91346
    A6        1.91622  -0.00029   0.00000  -0.00369  -0.00369   1.91253
    A7        2.10286  -0.00073   0.00000  -0.00246  -0.00246   2.10039
    A8        1.99710  -0.00085   0.00000  -0.00567  -0.00567   1.99143
    A9        2.18318   0.00158   0.00000   0.00813   0.00813   2.19131
   A10        2.11679   0.00085   0.00000   0.00741   0.00741   2.12420
   A11        2.10356  -0.00015   0.00000   0.00030   0.00030   2.10386
   A12        2.06283  -0.00070   0.00000  -0.00770  -0.00770   2.05512
   A13        1.96416  -0.00026   0.00000  -0.00436  -0.00437   1.95979
   A14        1.92185   0.00023   0.00000  -0.00054  -0.00055   1.92130
   A15        1.91796  -0.00047   0.00000   0.00340   0.00341   1.92137
   A16        1.97348  -0.00048   0.00000  -0.00094  -0.00095   1.97254
   A17        1.86683   0.00049   0.00000   0.00433   0.00433   1.87117
   A18        1.81209   0.00055   0.00000  -0.00124  -0.00124   1.81085
   A19        1.87951  -0.00011   0.00000   0.00233   0.00232   1.88183
   A20        1.92159   0.00158   0.00000  -0.00195  -0.00195   1.91964
   A21        1.91008   0.00001   0.00000   0.00201   0.00200   1.91208
   A22        1.86638  -0.00069   0.00000   0.00143   0.00143   1.86781
   A23        1.90819   0.00006   0.00000   0.00369   0.00368   1.91187
   A24        1.97530  -0.00085   0.00000  -0.00703  -0.00704   1.96826
   A25        1.89445   0.00183   0.00000   0.00220   0.00220   1.89665
    D1       -0.92517  -0.00015   0.00000   0.00025   0.00025  -0.92491
    D2        3.13892   0.00050   0.00000   0.00531   0.00530  -3.13896
    D3        1.15319  -0.00003   0.00000   0.00519   0.00519   1.15838
    D4       -3.03400  -0.00036   0.00000  -0.00412  -0.00412  -3.03812
    D5        1.03009   0.00029   0.00000   0.00094   0.00093   1.03102
    D6       -0.95564  -0.00024   0.00000   0.00082   0.00082  -0.95482
    D7        1.16868  -0.00030   0.00000  -0.00260  -0.00259   1.16609
    D8       -1.05042   0.00035   0.00000   0.00246   0.00246  -1.04796
    D9       -3.03614  -0.00018   0.00000   0.00235   0.00235  -3.03380
   D10        3.13936   0.00005   0.00000   0.00078   0.00078   3.14014
   D11        0.00131   0.00000   0.00000  -0.00011  -0.00011   0.00119
   D12       -0.01340   0.00005   0.00000   0.00016   0.00016  -0.01324
   D13        3.13173  -0.00001   0.00000  -0.00073  -0.00073   3.13100
   D14       -0.84189  -0.00002   0.00000   0.01117   0.01117  -0.83073
   D15        1.34943  -0.00031   0.00000   0.00609   0.00610   1.35552
   D16       -2.94985   0.00040   0.00000   0.00670   0.00671  -2.94314
   D17        2.31027  -0.00001   0.00000   0.01174   0.01174   2.32201
   D18       -1.78159  -0.00030   0.00000   0.00666   0.00667  -1.77493
   D19        0.20231   0.00041   0.00000   0.00728   0.00728   0.20959
   D20        2.03664  -0.00034   0.00000  -0.03617  -0.03617   2.00047
   D21       -2.21761  -0.00038   0.00000  -0.03420  -0.03420  -2.25181
   D22       -0.03596  -0.00035   0.00000  -0.04305  -0.04306  -0.07902
   D23       -0.17726   0.00019   0.00000  -0.02917  -0.02917  -0.20643
   D24        1.85168   0.00016   0.00000  -0.02720  -0.02720   1.82447
   D25       -2.24986   0.00018   0.00000  -0.03606  -0.03606  -2.28592
   D26       -2.19408  -0.00048   0.00000  -0.03313  -0.03313  -2.22721
   D27       -0.16514  -0.00052   0.00000  -0.03116  -0.03116  -0.19630
   D28        2.01651  -0.00050   0.00000  -0.04002  -0.04002   1.97649
   D29        1.41328  -0.00025   0.00000   0.02530   0.02530   1.43857
   D30       -2.73282  -0.00055   0.00000   0.02470   0.02471  -2.70810
   D31       -0.64189  -0.00060   0.00000   0.02501   0.02501  -0.61688
         Item               Value     Threshold  Converged?
 Maximum Force            0.010096     0.000450     NO 
 RMS     Force            0.002532     0.000300     NO 
 Maximum Displacement     0.054247     0.001800     NO 
 RMS     Displacement     0.018256     0.001200     NO 
 Predicted change in Energy=-6.304314D-04
 GradGradGradGradGradGradGradGradGradGradGradGradGradGradGradGradGradGrad

                          Input orientation:                          
 ---------------------------------------------------------------------
 Center     Atomic      Atomic             Coordinates (Angstroms)
 Number     Number       Type             X           Y           Z
 ---------------------------------------------------------------------
      1          6           0       -1.325359   -0.883656    0.490344
      2          1           0       -1.097857   -1.816076    1.003695
      3          1           0       -0.421522   -0.486140    0.031722
      4          1           0       -2.054548   -1.084685   -0.294840
      5          6           0       -3.059309   -0.407048    2.235125
      6          1           0       -3.802172   -0.907139    1.622598
      7          6           0       -3.230613   -0.304336    3.542219
      8          1           0       -2.504562    0.187760    4.173182
      9          1           0       -4.110233   -0.717418    4.014934
     10          6           0       -1.893270    0.133598    1.463749
     11          6           0       -2.223649    1.481545    0.708495
     12          1           0       -3.309823    1.626266    0.740051
     13          8           0       -1.660638    2.536231    1.368140
     14          8           0       -0.132677    1.433032    1.888287
     15          8           0       -0.889967    0.514984    2.420840
     16          1           0       -1.893954    1.408295   -0.333294
 ---------------------------------------------------------------------
                    Distance matrix (angstroms):
                    1          2          3          4          5
     1  C    0.000000
     2  H    1.088436   0.000000
     3  H    1.088703   1.780699   0.000000
     4  H    1.090249   1.770984   1.769653   0.000000
     5  C    2.505594   2.710917   3.437900   2.805255   0.000000
     6  H    2.723445   2.919337   3.759909   2.600438   1.084954
     7  C    3.644112   3.643915   4.499738   4.088410   1.322267
     8  H    4.012699   4.004975   4.684538   4.667424   2.101810
     9  H    4.495097   4.398752   5.433789   4.789037   2.090094
    10  C    1.518173   2.155357   2.144952   2.145427   1.498988
    11  C    2.539428   3.496979   2.752721   2.760582   2.568211
    12  H    3.209386   4.100246   3.647776   3.161640   2.536211
    13  O    3.546628   4.403649   3.529328   4.003961   3.372067
    14  O    2.956988   3.502967   2.685794   3.846886   3.474386
    15  O    2.423340   2.735938   2.632409   3.360075   2.364461
    16  H    2.500944   3.580207   2.426969   2.498443   3.354146
                    6          7          8          9         10
     6  H    0.000000
     7  C    2.091649   0.000000
     8  H    3.063996   1.080474   0.000000
     9  H    2.419539   1.080660   1.850018   0.000000
    10  C    2.179970   2.510042   2.778064   3.485355   0.000000
    11  C    3.005516   3.497619   3.709022   4.396268   1.580038
    12  H    2.727533   3.403769   3.808429   4.105894   2.181379
    13  O    4.062969   3.906439   3.754435   4.857187   2.415762
    14  O    4.360296   3.918054   3.520978   4.996800   2.229002
    15  O    3.337748   2.721654   2.405139   3.798692   1.438088
    16  H    3.581625   4.442900   4.708595   5.323310   2.203228
                   11         12         13         14         15
    11  C    0.000000
    12  H    1.096227   0.000000
    13  O    1.365458   1.985534   0.000000
    14  O    2.401338   3.383791   1.955062   0.000000
    15  O    2.375937   3.148921   2.405733   1.303807   0.000000
    16  H    1.095166   1.790046   2.054642   2.835160   3.064515
                   16
    16  H    0.000000
 Symmetry turned off by external request.
 Stoichiometry    C5H8O3
 Framework group  C1[X(C5H8O3)]
 Deg. of freedom    42
 Full point group                 C1      NOp   1
 Rotational constants (GHZ):           2.8354400           1.8400409           1.6799608
 Standard basis: CC-pVTZ (5D, 7F)
   352 basis functions,   552 primitive gaussians,   400 cartesian basis functions
    31 alpha electrons       31 beta electrons
       nuclear repulsion energy       398.6987370895 Hartrees.
 NAtoms=   16 NActive=   16 NUniq=   16 SFac= 1.00D+00 NAtFMM=   60 NAOKFM=F Big=F
 Integral buffers will be    131072 words long.
 Raffenetti 2 integral format.
 Two-electron integral symmetry is turned off.
 Nuclear repulsion after empirical dispersion term =      398.6983457091 Hartrees.
 One-electron integrals computed using PRISM.
 NBasis=   352 RedAO= T EigKep=  3.18D-04  NBF=   352
 NBsUse=   352 1.00D-06 EigRej= -1.00D+00 NBFU=   352
 Initial guess from the checkpoint file:  "ts1_di1.chk"
 B after Tr=    -0.004965    0.017492   -0.005142
         Rot=    0.999998   -0.000533   -0.000901   -0.001735 Ang=  -0.23 deg.
 Initial guess <Sx>= 0.0000 <Sy>= 0.0000 <Sz>= 0.0000 <S**2>= 0.6656 S= 0.4568
 ExpMin= 1.03D-01 ExpMax= 1.53D+04 ExpMxC= 5.22D+02 IAcc=2 IRadAn=         4 AccDes= 0.00D+00
 Harris functional with IExCor= 1009 and IRadAn=       4 diagonalized for initial guess.
 HarFok:  IExCor= 1009 AccDes= 0.00D+00 IRadAn=         4 IDoV= 1 UseB2=F ITyADJ=14
 ICtDFT=  3500011 ScaDFX=  1.000000  1.000000  1.000000  1.000000
 FoFCou: FMM=F IPFlag=           0 FMFlag=      100000 FMFlg1=           0
         NFxFlg=           0 DoJE=T BraDBF=F KetDBF=T FulRan=T
         wScrn=  0.000000 ICntrl=       500 IOpCl=  0 I1Cent=   200000004 NGrid=           0
         NMat0=    1 NMatS0=      1 NMatT0=    0 NMatD0=    1 NMtDS0=    0 NMtDT0=    0
 Symmetry not used in FoFCou.
 Requested convergence on RMS density matrix=1.00D-08 within 128 cycles.
 Requested convergence on MAX density matrix=1.00D-06.
 Requested convergence on             energy=1.00D-06.
 No special actions if energy rises.
 Integral accuracy reduced to 1.0D-05 until final iterations.
 Initial convergence to 1.0D-05 achieved.  Increase integral accuracy.
 SCF Done:  E(UM062X) =  -420.751508082     A.U. after   19 cycles
            NFock= 19  Conv=0.58D-08     -V/T= 2.0054
 <Sx>= 0.0000 <Sy>= 0.0000 <Sz>= 0.0000 <S**2>= 0.6517 S= 0.4496
 <L.S>=  0.00000000000    
 Annihilation of the first spin contaminant:
 S**2 before annihilation     0.6517,   after     0.0188
 Calling FoFJK, ICntrl=      2127 FMM=F ISym2X=0 I1Cent= 0 IOpClX= 1 NMat=1 NMatS=1 NMatT=0.
 -------------------------------------------------------------------
 Center     Atomic                   Forces (Hartrees/Bohr)
 Number     Number              X              Y              Z
 -------------------------------------------------------------------
      1        6          -0.000101506    0.000075097    0.000070334
      2        1           0.000028165   -0.000128727    0.000070000
      3        1           0.000115635    0.000050239   -0.000069913
      4        1          -0.000094358   -0.000023640   -0.000096114
      5        6           0.000118341    0.000085488   -0.000086670
      6        1          -0.000099348   -0.000086420   -0.000088758
      7        6          -0.000009758    0.000013574    0.000053897
      8        1           0.000104436    0.000069156    0.000104905
      9        1          -0.000127566   -0.000064882    0.000073718
     10        6           0.000021500    0.000022284   -0.000045339
     11        6          -0.000011174   -0.000022499    0.000193713
     12        1          -0.000136912   -0.000019473   -0.000045273
     13        8          -0.000037288    0.000021826   -0.000012794
     14        8           0.000031882    0.000031160    0.000045745
     15        8           0.000078711   -0.000038984   -0.000038961
     16        1           0.000119240    0.000015801   -0.000128491
 -------------------------------------------------------------------
 Cartesian Forces:  Max     0.000193713 RMS     0.000079207

 GradGradGradGradGradGradGradGradGradGradGradGradGradGradGradGradGradGrad
 Berny optimization.
 FormGI is forming the generalized inverse of G from B-inverse, IUseBI=4.
 Internal  Forces:  Max     0.000233162 RMS     0.000064901
 Search for a saddle point.
 Step number   2 out of a maximum of   81
 All quantities printed in internal units (Hartrees-Bohrs-Radians)
 Swapping is turned off.
 Update second derivatives using D2CorX and points    1    2
 ITU=  0  0
     Eigenvalues ---   -0.80852  -0.00033   0.00201   0.00343   0.01850
     Eigenvalues ---    0.03231   0.04038   0.04328   0.04387   0.04460
     Eigenvalues ---    0.04801   0.05164   0.06813   0.07480   0.09542
     Eigenvalues ---    0.10259   0.11071   0.11304   0.12334   0.13273
     Eigenvalues ---    0.14322   0.14576   0.15767   0.18305   0.20035
     Eigenvalues ---    0.21424   0.23161   0.27285   0.30018   0.30515
     Eigenvalues ---    0.30840   0.32593   0.32822   0.33317   0.33849
     Eigenvalues ---    0.34031   0.34808   0.35473   0.37245   0.43190
     Eigenvalues ---    0.63109   0.67888
 Eigenvectors required to have negative eigenvalues:
                          A20       A25       A18       D31       A22
   1                    0.41008   0.39311   0.30597  -0.26619  -0.20592
                          D30       D29       A16       A15       D27
   1                   -0.19990  -0.18479  -0.17645  -0.17588  -0.16798
 RFO step:  Lambda0=3.476870902D-08 Lambda=-3.61438343D-04.
 Linear search not attempted -- option 19 set.
 Iteration  1 RMS(Cart)=  0.10921788 RMS(Int)=  0.00799219
 Iteration  2 RMS(Cart)=  0.00907392 RMS(Int)=  0.00005086
 Iteration  3 RMS(Cart)=  0.00006138 RMS(Int)=  0.00001720
 Iteration  4 RMS(Cart)=  0.00000000 RMS(Int)=  0.00001720
 Variable       Old X    -DE/DX   Delta X   Delta X   Delta X     New X
                                 (Linear)    (Quad)   (Total)
    R1        2.05685   0.00015   0.00000   0.00177   0.00177   2.05862
    R2        2.05735   0.00014   0.00000   0.00276   0.00276   2.06011
    R3        2.06027   0.00014   0.00000   0.00317   0.00317   2.06344
    R4        2.86893   0.00002   0.00000  -0.00331  -0.00331   2.86562
    R5        2.05027   0.00016   0.00000   0.00228   0.00228   2.05255
    R6        2.49872   0.00023   0.00000   0.00188   0.00188   2.50060
    R7        2.83268   0.00004   0.00000   0.00243   0.00243   2.83510
    R8        2.04180   0.00016   0.00000   0.00221   0.00221   2.04401
    R9        2.04215   0.00016   0.00000   0.00238   0.00238   2.04453
   R10        2.98584   0.00001   0.00000  -0.02315  -0.02315   2.96269
   R11        2.71759   0.00008   0.00000   0.01634   0.01634   2.73393
   R12        2.07157   0.00013   0.00000   0.00141   0.00141   2.07298
   R13        2.58034  -0.00000   0.00000   0.00303   0.00303   2.58337
   R14        2.06956   0.00016   0.00000   0.00228   0.00228   2.07185
   R15        2.46384   0.00002   0.00000   0.00177   0.00177   2.46561
    A1        1.91553  -0.00000   0.00000  -0.00244  -0.00244   1.91309
    A2        1.89812   0.00000   0.00000  -0.00062  -0.00062   1.89750
    A3        1.92815  -0.00000   0.00000   0.00592   0.00591   1.93406
    A4        1.89568  -0.00000   0.00000  -0.00171  -0.00171   1.89397
    A5        1.91346   0.00001   0.00000   0.00031   0.00031   1.91377
    A6        1.91253  -0.00001   0.00000  -0.00159  -0.00159   1.91093
    A7        2.10039  -0.00001   0.00000  -0.00008  -0.00011   2.10028
    A8        1.99143  -0.00002   0.00000   0.00434   0.00431   1.99574
    A9        2.19131   0.00003   0.00000  -0.00438  -0.00441   2.18690
   A10        2.12420   0.00002   0.00000  -0.00152  -0.00152   2.12268
   A11        2.10386  -0.00001   0.00000   0.00045   0.00045   2.10430
   A12        2.05512  -0.00001   0.00000   0.00107   0.00107   2.05619
   A13        1.95979   0.00001   0.00000   0.00586   0.00586   1.96565
   A14        1.92130  -0.00000   0.00000   0.00733   0.00732   1.92862
   A15        1.92137  -0.00001   0.00000   0.00182   0.00185   1.92322
   A16        1.97254  -0.00003   0.00000  -0.00214  -0.00221   1.97032
   A17        1.87117  -0.00001   0.00000  -0.00939  -0.00941   1.86176
   A18        1.81085   0.00005   0.00000  -0.00477  -0.00480   1.80605
   A19        1.88183  -0.00001   0.00000   0.00639   0.00638   1.88821
   A20        1.91964   0.00007   0.00000  -0.01052  -0.01050   1.90914
   A21        1.91208  -0.00002   0.00000   0.01052   0.01050   1.92258
   A22        1.86781  -0.00001   0.00000   0.00527   0.00530   1.87311
   A23        1.91187   0.00001   0.00000  -0.00394  -0.00400   1.90787
   A24        1.96826  -0.00004   0.00000  -0.00732  -0.00730   1.96096
   A25        1.89665   0.00015   0.00000   0.00621   0.00621   1.90286
    D1       -0.92491  -0.00001   0.00000   0.03329   0.03331  -0.89161
    D2       -3.13896   0.00003   0.00000   0.02589   0.02588  -3.11308
    D3        1.15838  -0.00002   0.00000   0.02650   0.02650   1.18488
    D4       -3.03812  -0.00001   0.00000   0.03233   0.03234  -3.00578
    D5        1.03102   0.00003   0.00000   0.02492   0.02491   1.05593
    D6       -0.95482  -0.00002   0.00000   0.02553   0.02553  -0.92929
    D7        1.16609  -0.00001   0.00000   0.03520   0.03522   1.20131
    D8       -1.04796   0.00003   0.00000   0.02780   0.02779  -1.02017
    D9       -3.03380  -0.00002   0.00000   0.02841   0.02841  -3.00539
   D10        3.14014  -0.00000   0.00000   0.00009   0.00008   3.14022
   D11        0.00119  -0.00000   0.00000   0.00306   0.00305   0.00424
   D12       -0.01324  -0.00000   0.00000  -0.01441  -0.01440  -0.02764
   D13        3.13100   0.00000   0.00000  -0.01144  -0.01143   3.11957
   D14       -0.83073   0.00001   0.00000   0.12404   0.12404  -0.70669
   D15        1.35552  -0.00001   0.00000   0.13697   0.13695   1.49248
   D16       -2.94314   0.00003   0.00000   0.12446   0.12447  -2.81867
   D17        2.32201   0.00001   0.00000   0.13777   0.13778   2.45978
   D18       -1.77493  -0.00001   0.00000   0.15070   0.15070  -1.62423
   D19        0.20959   0.00003   0.00000   0.13819   0.13821   0.34780
   D20        2.00047  -0.00006   0.00000  -0.20087  -0.20084   1.79963
   D21       -2.25181  -0.00004   0.00000  -0.19663  -0.19663  -2.44844
   D22       -0.07902  -0.00005   0.00000  -0.20583  -0.20586  -0.28488
   D23       -0.20643  -0.00004   0.00000  -0.21287  -0.21284  -0.41927
   D24        1.82447  -0.00002   0.00000  -0.20864  -0.20863   1.61584
   D25       -2.28592  -0.00003   0.00000  -0.21784  -0.21786  -2.50378
   D26       -2.22721  -0.00004   0.00000  -0.19789  -0.19788  -2.42508
   D27       -0.19630  -0.00002   0.00000  -0.19366  -0.19367  -0.38997
   D28        1.97649  -0.00004   0.00000  -0.20286  -0.20289   1.77360
   D29        1.43857   0.00002   0.00000   0.15123   0.15123   1.58980
   D30       -2.70810   0.00002   0.00000   0.15357   0.15356  -2.55454
   D31       -0.61688   0.00000   0.00000   0.14444   0.14445  -0.47243
         Item               Value     Threshold  Converged?
 Maximum Force            0.000233     0.000450     YES
 RMS     Force            0.000065     0.000300     YES
 Maximum Displacement     0.349024     0.001800     NO 
 RMS     Displacement     0.111327     0.001200     NO 
 Predicted change in Energy=-1.765636D-04
 GradGradGradGradGradGradGradGradGradGradGradGradGradGradGradGradGradGrad

                          Input orientation:                          
 ---------------------------------------------------------------------
 Center     Atomic      Atomic             Coordinates (Angstroms)
 Number     Number       Type             X           Y           Z
 ---------------------------------------------------------------------
      1          6           0       -1.354805   -0.905831    0.436673
      2          1           0       -1.151320   -1.863819    0.913735
      3          1           0       -0.442110   -0.523798   -0.021031
      4          1           0       -2.099441   -1.056119   -0.347692
      5          6           0       -3.026305   -0.436798    2.249613
      6          1           0       -3.739678   -1.022423    1.676997
      7          6           0       -3.221087   -0.222390    3.540779
      8          1           0       -2.523660    0.356503    4.131057
      9          1           0       -4.089212   -0.630149    4.041421
     10          6           0       -1.878219    0.098089    1.445492
     11          6           0       -2.207658    1.460838    0.743816
     12          1           0       -3.295852    1.529803    0.623686
     13          8           0       -1.821271    2.492848    1.552836
     14          8           0       -0.190923    1.488345    1.941818
     15          8           0       -0.838027    0.447135    2.388469
     16          1           0       -1.730584    1.502979   -0.242420
 ---------------------------------------------------------------------
                    Distance matrix (angstroms):
                    1          2          3          4          5
     1  C    0.000000
     2  H    1.089374   0.000000
     3  H    1.090163   1.781130   0.000000
     4  H    1.091924   1.772713   1.771107   0.000000
     5  C    2.510111   2.708603   3.441142   2.826417   0.000000
     6  H    2.690653   2.826679   3.742443   2.605931   1.086161
     7  C    3.685861   3.725532   4.527698   4.131997   1.323261
     8  H    4.075314   4.142983   4.727327   4.715364   2.102810
     9  H    4.532901   4.464927   5.460420   4.837867   2.092303
    10  C    1.516422   2.158757   2.144725   2.143979   1.500272
    11  C    2.534328   3.492573   2.764224   2.745573   2.557074
    12  H    3.120088   4.024900   3.574463   3.010311   2.565895
    13  O    3.607551   4.453969   3.671416   4.035412   3.243522
    14  O    3.058130   3.635426   2.822160   3.919004   3.440975
    15  O    2.430450   2.759258   2.627766   3.367123   2.364145
    16  H    2.530759   3.606601   2.411847   2.587686   3.413482
                    6          7          8          9         10
     6  H    0.000000
     7  C    2.093483   0.000000
     8  H    3.066358   1.081643   0.000000
     9  H    2.422097   1.081920   1.852693   0.000000
    10  C    2.184988   2.509228   2.774100   3.486785   0.000000
    11  C    3.063412   3.418083   3.576705   4.334359   1.567790
    12  H    2.796480   3.403704   3.778170   4.120161   2.175973
    13  O    4.006598   3.644711   3.421191   4.592355   2.397840
    14  O    4.355198   3.829515   3.393449   4.908463   2.241900
    15  O    3.329470   2.730395   2.426146   3.803025   1.446733
    16  H    3.754767   4.417136   4.590281   5.335228   2.201036
                   11         12         13         14         15
    11  C    0.000000
    12  H    1.096975   0.000000
    13  O    1.367060   1.991272   0.000000
    14  O    2.345887   3.373393   1.954065   0.000000
    15  O    2.368199   3.213648   2.418676   1.304745   0.000000
    16  H    1.096375   1.789113   2.052074   2.672390   2.972044
                   16
    16  H    0.000000
 Symmetry turned off by external request.
 Stoichiometry    C5H8O3
 Framework group  C1[X(C5H8O3)]
 Deg. of freedom    42
 Full point group                 C1      NOp   1
 Rotational constants (GHZ):           2.7152672           1.9498802           1.7002811
 Standard basis: CC-pVTZ (5D, 7F)
   352 basis functions,   552 primitive gaussians,   400 cartesian basis functions
    31 alpha electrons       31 beta electrons
       nuclear repulsion energy       399.5415325252 Hartrees.
 NAtoms=   16 NActive=   16 NUniq=   16 SFac= 1.00D+00 NAtFMM=   60 NAOKFM=F Big=F
 Integral buffers will be    131072 words long.
 Raffenetti 2 integral format.
 Two-electron integral symmetry is turned off.
 Nuclear repulsion after empirical dispersion term =      399.5411443350 Hartrees.
 One-electron integrals computed using PRISM.
 NBasis=   352 RedAO= T EigKep=  3.25D-04  NBF=   352
 NBsUse=   352 1.00D-06 EigRej= -1.00D+00 NBFU=   352
 Initial guess from the checkpoint file:  "ts1_di1.chk"
 B after Tr=    -0.035879    0.084034    0.002885
         Rot=    0.999938   -0.008484   -0.003046   -0.006549 Ang=  -1.28 deg.
 Initial guess <Sx>= 0.0000 <Sy>= 0.0000 <Sz>= 0.0000 <S**2>= 0.6519 S= 0.4497
 ExpMin= 1.03D-01 ExpMax= 1.53D+04 ExpMxC= 5.22D+02 IAcc=2 IRadAn=         4 AccDes= 0.00D+00
 Harris functional with IExCor= 1009 and IRadAn=       4 diagonalized for initial guess.
 HarFok:  IExCor= 1009 AccDes= 0.00D+00 IRadAn=         4 IDoV= 1 UseB2=F ITyADJ=14
[...]

 ----------------------------------------------------------------------

 Dipole orientation:
     6         -1.95424375          0.96335201          2.28227692
     1         -1.64997475          2.88611015          2.94759174
     1         -0.36679401          0.37363158          1.11312376
     1         -2.07120064         -0.29105112          3.91318267
     6         -6.60621277          1.84748108          2.17396886
     1         -6.74144657          1.21670375          4.12056682
     6         -8.32880208          3.38848606          1.22345427
     1         -8.23264232          4.04412927         -0.70830640
     1         -9.88718664          4.03902113          2.37259449
     6         -4.38347653          0.79629805          0.76630144
     6         -4.81834530         -1.99973852         -0.17429818
     1         -6.48270124         -2.74898747          0.80599235
     8         -5.35899131         -2.00265595         -2.69800975
     8         -3.04195788          0.81470213         -3.23132433
     8         -4.14856368          2.22251115         -1.53835012
     1         -3.16439374         -3.15493580          0.28932482

 Electric dipole moment (dipole orientation):
 (Debye = 10**-18 statcoulomb cm , SI units = C m)
                  (au)            (Debye)         (10**-30 SI)
   Tot        0.150922D+01      0.383606D+01      0.127957D+02
   x          0.000000D+00      0.000000D+00      0.000000D+00
   y          0.000000D+00      0.000000D+00      0.000000D+00
   z          0.150922D+01      0.383606D+01      0.127957D+02

 Dipole polarizability, Alpha (dipole orientation).
 (esu units = cm**3 , SI units = C**2 m**2 J**-1)
 Alpha(0;0):
               (au)            (10**-24 esu)      (10**-40 SI)
   iso        0.718280D+02      0.106438D+02      0.118428D+02
   aniso      0.124932D+02      0.185130D+01      0.205985D+01
   xx         0.724140D+02      0.107306D+02      0.119395D+02
   yx        -0.661877D+01     -0.980800D+00     -0.109129D+01
   yy         0.734636D+02      0.108862D+02      0.121125D+02
   zx        -0.949888D+00     -0.140759D+00     -0.156615D+00
   zy         0.182740D+01      0.270792D+00      0.301297D+00
   zz         0.696065D+02      0.103146D+02      0.114766D+02

 ----------------------------------------------------------------------
 1\1\GINC-FENG10\Freq\UM062X\CC-pVTZ\C5H8O3\LIDONGYANG\15-Sep-2025\0\\#
 N Geom=AllCheck Guess=TCheck SCRF=Check GenChk UM062X/CC-pVTZ Freq\\Ti
 tle Card Required\\0,1\C,-1.3300679015,-0.8877223192,0.4804221488\H,-1
 .1060545923,-1.8247411915,0.9873310354\H,-0.4249906582,-0.4925971908,0
 .0215712244\H,-2.0624280766,-1.0802007939,-0.304369831\C,-3.0537103943
 ,-0.4129634854,2.2370908703\H,-3.7910011047,-0.929395375,1.6310085626\
 C,-3.2296996412,-0.2890111303,3.5419197637\H,-2.5088917659,0.219618939
 4,4.1661619716\H,-4.1074610337,-0.7010750978,4.0195137943\C,-1.8903747
 602,0.1268418,1.4605157571\C,-2.2211045086,1.4779517334,0.7155071053\H
 ,-3.3095508821,1.6091670603,0.7237671483\O,-1.6846456707,2.5300114521,
 1.4016351844\O,-0.1421888489,1.443133066,1.8968835245\O,-0.881110521,0
 .5023280399,2.4159209673\H,-1.86687164,1.4238674929,-0.3196312268\\Ver
 sion=ES64L-G16RevA.03\HF=-420.7515153\S2=0.648089\S2-1=0.\S2A=0.018478
 \RMSD=1.137e-09\RMSF=2.454e-06\ZeroPoint=0.1255299\Thermal=0.1334855\D
 ipole=-0.8555058,-1.0925967,-0.5933765\DipoleDeriv=-0.0147257,-0.03459
 14,0.1255666,-0.0270507,0.0069184,-0.0300358,0.0538996,-0.0298248,0.00
 72983,0.0783011,0.0351353,-0.0069114,0.02366,-0.0508272,0.0305849,-0.0
 249304,0.0682192,0.0248339,-0.0183633,-0.0172571,0.0702378,-0.0557632,
 0.0388726,0.0153788,0.0431059,0.0078986,0.0161354,-0.0181604,-0.008142
 8,-0.0916785,0.0102367,0.0403334,0.0003139,-0.062003,-0.0541887,0.0082
 955,0.0393479,0.1694055,-0.1018547,0.1816927,-0.1369327,-0.0610337,0.0
 035474,-0.0349622,0.0667035,0.0192359,-0.0875735,-0.0149132,-0.064231,
 0.0787371,-0.0418163,-0.0342348,-0.0343749,-0.0121906,-0.0359568,0.108
 7052,0.0309034,0.1094281,-0.1705343,0.0506417,0.0152208,0.0588657,-0.1
 175045,0.0497725,-0.0479372,-0.0435014,-0.0527024,0.1015473,-0.0325288
 ,-0.0054167,-0.0300123,0.0721817,-0.004867,-0.0785839,0.0697966,-0.071
 6106,0.1030332,0.019782,0.0421158,0.0034254,0.0372878,0.3947874,0.1662
 008,-0.1098556,-0.0380567,0.4121724,0.0809365,-0.0955921,0.1818956,0.2
 238062,0.1072302,-0.0853458,0.0010906,0.0641965,0.0337223,0.1155553,0.
 0321381,-0.0483146,0.4234451,-0.0382038,0.0265518,0.008722,-0.0259516,
 0.1565281,-0.0701511,-0.0079295,-0.0485399,0.0624319,0.0367862,-0.0795
 238,0.0739441,-0.1043342,-0.3449506,-0.0318306,0.0857893,0.0494035,-0.
 3020068,-0.496857,0.4089335,-0.2912139,-0.0033476,0.3855777,-0.2335336
 ,0.000408,-0.3264826,0.0288139,-0.1263996,-0.4688435,0.1926152,0.10390
 81,-0.6894276,0.207205,-0.0644752,0.2409081,-0.3509818,0.0280725,-0.00
 71331,0.0870523,-0.0500743,0.03523,-0.0194683,0.0183566,-0.003916,-0.1
 885493\Polar=68.8213098,3.0328198,70.1640705,-3.9626393,-3.2114995,76.
 498748\Quadrupole=6.4991585,-5.2788695,-1.2202889,1.9953895,-1.3610718
 ,-3.9032501\PG=C01 [X(C5H8O3)]\NImag=1\\0.57427775,0.02862000,0.547118
 20,0.02296532,-0.05366154,0.53840443,-0.05980085,0.04685228,-0.0248942
 7,0.05966483,0.04702114,-0.24788209,0.11153709,-0.05394482,0.26922760,
 -0.02645353,0.11337227,-0.10930620,0.02697733,-0.11973670,0.11548759,-
 0.23604844,-0.08219207,0.09528482,0.00781082,0.00281634,-0.00387095,0.
 25477301,-0.08590280,-0.08578527,0.04417667,-0.02301004,-0.00833031,0.
 00932918,0.08991344,0.09004994,0.09382477,0.04320537,-0.09292256,0.012
 24275,0.00406947,-0.00630630,-0.10558821,-0.04450466,0.10031737,-0.169
 41366,-0.03157697,-0.13176818,-0.00448075,-0.00146017,-0.00299727,-0.0
 1620348,-0.00365061,-0.01996569,0.18126943,-0.03012921,-0.05412715,-0.
 03325163,0.01901732,0.00683975,0.02003804,-0.00662726,-0.00314258,-0.0
 0854615,0.03380718,0.05675858,-0.13079069,-0.03404004,-0.18503778,-0.0
 0888358,-0.00333945,-0.01028863,0.00944365,0.00265134,0.01132853,0.143
 32339,0.03912884,0.20023069,-0.01186277,-0.00042333,0.01459159,0.00062
 453,-0.00116181,-0.00058502,0.00019193,0.00028055,0.00029460,0.0002319
 0,-0.00041289,-0.00095561,0.48145957,0.01941182,0.01069381,-0.01089775
 ,0.00030513,0.00077440,-0.00019197,0.00193847,-0.00316016,-0.00422060,
 -0.00055429,0.00017296,-0.00009900,0.17667094,0.27542025,0.02320750,0.
 00624599,-0.01670797,-0.00056195,0.00093800,0.00124609,0.00185554,-0.0
 0302996,-0.00236175,0.00003307,0.00081681,0.00083739,-0.02820432,0.106
 23690,0.87752417,0.00091245,-0.00021870,-0.00127656,-0.00025958,0.0002
 7862,0.00001800,0.00034414,0.00016227,0.00005058,-0.00011083,0.0001274
 3,0.00081911,-0.18295698,-0.09747335,-0.10380293,0.18916504,0.00023425
 ,0.00056803,-0.00021521,-0.00001415,-0.00007592,0.00019196,0.00006139,
 -0.00010083,0.00023449,0.00007807,0.00026643,0.00027121,-0.09846075,-0
 .10772793,-0.07573906,0.10989159,0.10147020,0.00003384,0.00013593,0.00
 062863,-0.00014469,-0.00021212,0.00008680,-0.00014955,0.00007861,0.000
 10856,0.00027984,0.00006702,-0.00029071,-0.10260115,-0.07412462,-0.138
 34462,0.10964892,0.08331520,0.14919370,-0.00289442,-0.00263665,0.00080
 846,0.00001132,0.00016030,-0.00025620,-0.00045731,0.00095248,0.0011187
 1,0.00014918,0.00009758,0.00037096,-0.10736203,-0.02025738,0.06371053,
 0.00734869,-0.00349735,-0.02334424,0.53708695,-0.00172757,-0.00178049,
 0.00031534,-0.00021637,0.00029193,0.00012761,-0.00016466,0.00080001,0.
 00048692,0.00008080,0.00001932,0.00020487,-0.02080159,-0.07309901,-0.0
 5069376,0.00090624,0.00479411,-0.01719589,0.22406818,0.25615547,0.0004
 0311,0.00218706,0.00127599,0.00011954,-0.00048731,-0.00010756,0.000020
 51,-0.00057326,-0.00004214,-0.00019429,-0.00007013,0.00023173,0.059011
 55,-0.05382260,-0.57130926,0.00470688,-0.00136753,-0.01595938,-0.06707
 793,0.08782657,0.86350434,-0.00037742,-0.00020578,-0.00001669,-0.00000
 601,-0.00003650,0.00000938,-0.00000022,0.00006856,0.00012958,0.0000412
 5,-0.00003906,-0.00003542,0.00829769,0.00097289,0.00298932,0.00328557,
 -0.00439167,0.00254335,-0.18439352,-0.10020261,-0.11328691,0.18724980,
 0.00043882,0.00029150,-0.00052263,0.00008589,-0.00000130,-0.00006154,0
 .00000210,-0.00013369,-0.00016969,0.00008959,-0.00001677,-0.00006935,-
 0.00268596,0.00577017,-0.00228883,-0.00442128,0.00925241,-0.00141016,-
 0.09920698,-0.10876965,-0.08158056,0.11012442,0.10179069,-0.00004697,-
 0.00000766,0.00003033,-0.00005821,0.00000337,0.00000428,0.00006367,0.0
 0002580,0.00003600,0.00002026,0.00005536,0.00017185,-0.02248290,-0.016
 07194,-0.01423565,0.00216220,-0.00145597,-0.00439494,-0.10742069,-0.07
 911252,-0.15046321,0.11924755,0.08931850,0.15815955,0.00077073,0.00037
 122,-0.00041051,-0.00002978,0.00009355,0.00002361,0.00005590,-0.000133
 56,-0.00024755,-0.00000707,0.00001543,-0.00001230,0.00061906,-0.002099
 09,-0.00039374,-0.00110313,0.00404854,-0.00053106,-0.24689657,-0.09990
 573,0.10483777,-0.00996028,-0.00575089,0.00959586,0.25333170,-0.001445
 27,-0.00073107,0.00081299,-0.00000445,-0.00013036,-0.00001469,-0.00007
 722,0.00027207,0.00038698,0.00002557,-0.00000800,0.00003017,0.00274910
 ,0.00485251,-0.00429946,0.00399732,-0.00607179,0.00141575,-0.10064524,
 -0.08578870,0.04707976,-0.00952172,-0.00111516,0.00657619,0.10884932,0
 .07779830,0.00105299,0.00083827,-0.00042065,0.00001116,-0.00004853,0.0
 0000945,0.00017283,-0.00032723,-0.00031854,-0.00002573,0.00001359,-0.0
 0000882,0.02801258,0.01338547,-0.01233976,-0.00077352,0.00118170,0.000
 90979,0.10009065,0.04385072,-0.10847046,-0.01311972,-0.00618751,0.0101
 3527,-0.11390336,-0.04899748,0.11323000,-0.09929907,0.02890689,0.03442
 004,-0.00410772,0.00434046,0.00501147,-0.01168724,0.02123052,0.0199189
 2,0.00711671,-0.01617374,-0.01497425,-0.16056481,-0.04363320,0.0544776
 7,-0.01253166,-0.00722010,0.01094375,-0.00071009,-0.00062544,0.0105394
 5,-0.00183824,0.00261783,-0.00206984,0.00407315,-0.00530375,-0.0008002
 7,0.48159529,0.03725558,-0.12815731,-0.05036901,0.01019473,-0.01939413
 ,-0.02095807,-0.00484931,0.00691271,0.00651609,0.00178646,-0.00427240,
 -0.00227926,-0.03521781,-0.09343517,0.02163035,-0.00981686,-0.00261625
 ,0.00628414,0.00046777,0.00777949,0.00365677,0.00307727,-0.00615754,0.
 00010173,-0.00486138,0.00982773,-0.00356009,0.04527796,0.45830906,0.03
 645656,-0.05054045,-0.11139480,-0.00643156,0.00919323,0.00898159,0.004
 62264,-0.00868234,-0.01218816,0.00843642,-0.01297445,-0.01460253,0.047
 75150,0.01915884,-0.12294881,-0.01478866,-0.00770842,0.00885098,0.0289
 1570,0.01326711,-0.01669587,-0.00087174,0.00115026,0.00069943,-0.00020
 073,-0.00229587,-0.00357387,-0.06328705,0.02203564,0.47595393,-0.00234
 452,0.01097553,-0.00273728,0.00096123,0.00127315,0.00134894,0.00033608
 ,0.00088795,-0.00119722,0.00096077,-0.00040039,0.00028584,0.00822411,-
 0.01519323,0.00958452,-0.00064181,0.00015920,-0.00032714,-0.00272317,-
 0.00082115,0.00072439,0.00034765,-0.00071637,0.00013088,-0.00071287,0.
 00138950,0.00019606,-0.06330157,0.00471787,0.00087458,0.55545921,0.006
 97096,-0.03131081,0.01284483,0.00174406,-0.00175276,-0.00272926,-0.000
 52409,0.00169083,0.00136853,-0.00030957,0.00042058,0.00075187,-0.00705
 538,-0.00842972,0.01211221,0.00011808,0.00057414,-0.00041213,0.0022550
 7,-0.00082285,-0.00332699,0.00015147,-0.00001423,-0.00022587,-0.000260
 86,0.00015875,-0.00030380,0.01351749,-0.07223919,-0.00284129,-0.010108
 58,0.36877460,0.00472140,-0.01568204,0.00950838,0.00247867,-0.00278048
 ,-0.00356798,0.00111455,-0.00101260,0.00038163,-0.00036052,-0.00110779
 ,0.00005455,0.00019223,0.01743838,-0.01372594,0.00001327,-0.00045666,0
 .00038358,0.00067533,0.00104075,0.00099312,-0.00049529,0.00089074,-0.0
 0053734,0.00061472,-0.00140986,0.00005468,-0.00291210,0.02943487,-0.08
 641323,-0.03531284,0.05497470,0.56692278,-0.00025587,0.00107725,-0.000
 65360,-0.00003355,0.00030160,0.00012100,0.00025135,-0.00014345,-0.0000
 9874,-0.00012361,0.00008500,0.00005987,0.00021246,-0.00157296,0.002079
 82,0.00026318,0.00020189,-0.00025942,0.00054139,-0.00032590,-0.0002400
 7,-0.00002686,-0.00001806,0.00000756,-0.00007987,0.00018076,-0.0000916
 5,-0.00521477,0.00102546,0.00053848,-0.29162879,0.04061980,0.01059536,
 0.32551001,0.00007666,-0.00075288,-0.00001993,-0.00033423,-0.00055946,
 -0.00014854,-0.00031426,0.00007065,0.00026354,-0.00008247,-0.00008840,
 -0.00018115,0.00101144,0.00003663,0.00107245,-0.00013795,-0.00034989,-
 0.00008608,-0.00023391,0.00000036,-0.00012921,0.00001943,0.00003175,-0
 .00004315,0.00000974,-0.00000854,0.00003743,0.02383360,-0.00607365,0.0
 0360138,0.03330366,-0.03577375,-0.00432647,-0.03061440,0.05105463,0.00
 054796,0.00041221,0.00018015,-0.00014676,-0.00001953,0.00016387,-0.000
 24549,-0.00010396,-0.00000061,-0.00005456,0.00012365,0.00005855,-0.000
 25182,0.00088958,0.00040549,0.00012670,0.00011347,-0.00003099,-0.00012
 145,-0.00023531,-0.00017363,-0.00011582,0.00005355,0.00002715,0.000041
 68,0.00002950,0.00005655,-0.01538741,0.00570107,-0.00390927,0.00950125
 ,-0.00978336,-0.04767293,-0.00239062,0.00260113,0.04973434,0.00151795,
 0.00116093,0.00275320,0.00038370,-0.00006471,-0.00036071,0.00023864,-0
 .00005352,-0.00015071,-0.00064629,0.00044953,0.00056757,0.00106772,0.0
 0031559,-0.00219626,-0.00019953,-0.00006827,0.00010304,-0.00003962,0.0
 0057102,0.00032790,0.00006817,-0.00007689,0.00030327,-0.00000305,0.000
 24789,0.00018623,-0.01547766,0.00336479,0.00062910,-0.07372757,-0.0772
 1650,-0.04222672,-0.02017356,-0.02381433,-0.01987671,0.01997022,-0.000
 93247,-0.00048525,-0.00205489,0.00007265,0.00003644,-0.00025130,-0.000
 08064,-0.00033185,-0.00050475,0.00046122,0.00033478,-0.00061286,0.0042
 0035,-0.00132902,0.00127722,0.00031838,0.00007093,-0.00022494,-0.00117
 458,0.00042500,0.00111915,0.00010652,-0.00020620,-0.00026695,-0.000273
 74,0.00024443,0.00000257,0.00194553,-0.06480817,0.00779777,-0.03889721
 ,-0.16828265,-0.09171044,-0.01190035,-0.00745215,0.00442117,0.12455528
 ,0.24789729,-0.00076868,0.00288145,-0.00242518,-0.00048475,0.00040332,
 0.00109539,-0.00043581,0.00028289,-0.00008275,0.00033447,0.00054936,0.
 00031733,-0.00009845,-0.00147630,0.00040939,-0.00000040,0.00012330,0.0
 0004975,-0.00036776,-0.00017511,0.00019852,0.00004595,-0.00034435,0.00
 037881,0.00004400,0.00018247,0.00002539,0.00137169,-0.00869564,0.01741
 732,-0.03044052,-0.08229495,-0.13633222,-0.01042677,-0.00543987,0.0002
 5472,0.04224575,0.12652803,0.14498436,0.00187465,0.00019174,0.00104402
 ,-0.00065098,-0.00058922,-0.00047016,0.00007818,-0.00013638,-0.0008743
 0,0.00056511,0.00109042,0.00062426,-0.00324496,-0.00523790,-0.00429878
 ,-0.00103364,0.00004703,0.00129567,0.00018337,-0.00042396,-0.00054311,
 -0.00063805,0.00000568,0.00061047,0.00013220,0.00026336,0.00011900,-0.
 04207735,-0.04938555,0.00529986,-0.02320845,0.01479377,-0.00225243,0.0
 0010018,-0.00845410,-0.00142124,0.05796819,-0.05207731,0.03016496,0.17
 994778,0.00502330,-0.00081979,0.00590702,-0.00005772,-0.00126861,-0.00
 067830,-0.00010806,0.00004569,-0.00072633,-0.00007793,0.00183430,0.001
 82442,0.00018382,-0.00123748,-0.00516334,-0.00084865,0.00043020,0.0008
 5236,0.00046898,0.00006849,-0.00038418,-0.00061385,-0.00009755,0.00117
 610,0.00030759,0.00037924,0.00038537,-0.05312899,-0.02162573,-0.006560
 60,0.00529097,0.00429845,0.00592188,-0.00100970,-0.00263857,-0.0017506
 6,-0.05373512,0.03015316,-0.01956568,0.24282541,0.18707714,-0.00189427
 ,-0.00023609,-0.00164847,-0.00044074,0.00028854,0.00029864,-0.00077769
 ,-0.00015069,0.00060761,-0.00018690,-0.00062941,-0.00050896,-0.0031953
 3,-0.00082763,-0.00314995,-0.00093460,-0.00039227,0.00061756,0.0000917
 2,-0.00020453,0.00016610,0.00015543,0.00031808,-0.00000929,0.00006959,
 -0.00015557,0.00017672,-0.00229359,-0.01220765,0.02685690,-0.02040001,
 -0.00549935,-0.00483037,-0.00017076,0.00240046,0.00007430,0.04010049,-
 0.02956232,0.00129273,-0.09038630,-0.07355043,0.09547747,0.00176839,-0
 .00116112,-0.00952659,-0.00010613,0.00106215,0.00168340,0.00045355,-0.
 00055813,0.00075982,0.00074588,-0.00055514,0.00004431,-0.03449422,-0.0
 1377206,-0.01882898,-0.00254486,-0.00116802,0.00254917,-0.00026694,-0.
 00010882,0.00093814,-0.00199210,-0.00052649,-0.00004580,-0.00021588,-0
 .00067770,-0.00107277,-0.07780839,-0.00678828,-0.04023320,-0.02188934,
 0.01331191,-0.02536366,-0.00011992,0.00477505,0.00138603,0.02323447,-0
 .02118458,-0.01097309,-0.17339199,-0.14289804,0.08057285,0.28707261,-0
 .02472554,-0.00692262,-0.02699296,-0.00066909,0.00209774,0.00192947,-0
 .00034133,0.00117685,0.00227715,0.00177616,-0.00482877,-0.00428150,-0.
 02131175,-0.00685907,-0.01080608,-0.00271589,-0.00045205,0.00153746,0.
 00003502,0.00022425,-0.00050752,0.00041070,-0.00036766,-0.00019243,-0.
 00021489,-0.00013482,-0.00035317,-0.00666448,-0.05968905,-0.00751543,0
 .00577445,-0.01203550,0.00920818,-0.00010586,0.00158854,0.00066320,0.0
 1886619,-0.02477405,0.02599410,-0.13892182,-0.19594643,0.11857309,0.16
 744725,0.30745424,-0.02389751,-0.01279945,-0.03110833,0.00029717,0.000
 61411,0.00173550,-0.00080116,0.00143691,0.00115729,0.00303611,-0.00487
 769,-0.00290383,0.01041416,0.00300004,0.01578152,0.00377266,0.00182794
 ,-0.00179626,0.00238008,0.00020064,-0.00311574,0.00289936,0.00079613,-
 0.00005891,0.00030361,0.00091278,0.00057449,-0.04202320,0.00119912,-0.
 15361718,-0.01698932,0.02244543,-0.02119770,0.00056065,-0.00090380,-0.
 00010103,-0.01682958,0.00359234,-0.00763918,0.06053374,0.09401585,-0.1
 1711067,0.01702144,-0.11214426,0.32073327,0.00117512,0.00025878,-0.000
 58377,0.00001894,-0.00009008,-0.00019931,-0.00013690,0.00009272,-0.000
 21731,-0.00009452,-0.00035219,0.00011289,-0.00044320,0.00017861,0.0003
 4899,0.00006295,0.00009836,-0.00004034,0.00042276,-0.00030244,-0.00028
 693,-0.00005742,0.00003860,-0.00001730,0.00002578,-0.00002747,-0.00005
 448,0.00183343,0.00375131,-0.00771193,-0.08611094,0.00199237,0.0885180
 6,-0.00922177,0.00095606,0.02840825,0.00581820,-0.00513904,-0.02021057
 ,0.00339576,-0.00162204,-0.00030988,-0.00044514,0.00136086,-0.00067821
 ,0.08375694,-0.00018967,0.00008320,0.00239160,-0.00002119,0.00012709,-
 0.00021818,0.00054715,-0.00003407,-0.00013636,-0.00039305,-0.00016262,
 0.00003989,0.00243506,-0.00244317,0.00169057,-0.00016726,-0.00003179,-
 0.00002054,-0.00085330,-0.00029773,0.00037999,0.00007993,-0.00025677,0
 .00011942,-0.00019523,0.00045542,0.00008269,-0.00892058,-0.00436040,0.
 02291463,0.00236464,-0.04525590,-0.00042318,0.00219892,0.00091473,-0.0
 0311574,0.00549812,-0.01149268,-0.03895302,-0.00399117,-0.00065252,0.0
 0183577,0.00280201,-0.00053160,0.00068390,-0.00119438,0.06393882,0.000
 63820,-0.00231130,0.00094402,-0.00008010,-0.00042302,0.00046747,-0.000
 70935,0.00040329,0.00028581,0.00008959,0.00066457,0.00041065,-0.001893
 61,0.00162320,-0.00108034,0.00025836,0.00007585,-0.00001244,0.00042612
 ,0.00029659,-0.00003255,-0.00007832,0.00010737,0.00005667,0.00016841,-
 0.00025367,-0.00004024,0.00706471,0.00150993,-0.01341643,0.08475785,0.
 00291942,-0.26402102,0.00036888,0.00130182,0.00093333,-0.00557587,-0.0
 1954981,-0.01994437,0.00055433,-0.00170349,0.00168968,0.00108893,0.002
 61070,-0.00133325,-0.08707814,0.01272854,0.29509300\\0.00000014,-0.000
 00149,0.00000134,-0.00000190,-0.00000156,0.00000180,0.00000100,-0.0000
 0301,0.00000237,0.00000080,-0.00000063,0.00000064,-0.00000249,0.000001
 87,-0.00000218,-0.00000168,0.00000245,-0.00000202,-0.00000348,0.000001
 88,-0.00000164,-0.00000345,0.00000122,-0.00000041,-0.00000460,0.000003
 40,-0.00000259,-0.00000070,0.00000066,-0.00000155,0.00000105,-0.000001
 31,0.00000059,0.00000304,0.00000159,-0.00000171,0.00000030,0.00000188,
 -0.00000163,0.00000657,-0.00000544,0.00000617,0.00000114,-0.00000093,0
 .00000090,0.00000427,-0.00000058,-0.00000008\\\@


 IF YOU'RE NOT PART OF THE SOLUTION,
 THEN YOU'RE PART OF THE PRECIPITATE.
 Job cpu time:       0 days  4 hours 20 minutes 40.3 seconds.
 Elapsed time:       0 days  0 hours 26 minutes  6.8 seconds.
 File lengths (MBytes):  RWF=    316 Int=      0 D2E=      0 Chk=     15 Scr=      1
 Normal termination of Gaussian 16 at Mon Sep 15 19:38:37 2025.
