 Entering Gaussian System, Link 0=g16

 ----------------------------------------------------------------------
 Center     Atomic     Atomic              Coordinates (Angstroms)
 Number     Number      Type              X           Y           Z
 ----------------------------------------------------------------------
      1          6             0       -0.000000    0.000000    0.000000
      2          1             0        0.000000    0.000000    1.089000
      3          1             0        1.026719    0.000000   -0.363000
      4          1             0       -0.513360   -0.889165   -0.363000

 Stoichiometry    CH3
 Rotational symmetry number = 3
 Rotational temperatures (Kelvin)      11.3956      11.3956       6.6067
 Rotational constants (GHZ):          237.5588     237.5588     137.7462

 Harmonic frequencies (cm**-1), IR intensities (KM/Mole), Raman scattering
 activities (A**4/AMU), depolarization ratios for plane and unpolarized
 incident light, reduced masses (AMU), force constants (mDyne/A):

                    1                      2                      3
                  A1                     E                     E
 Frequencies --  1354.7312              581.0761              581.0761
 Red. masses --     1.0480                1.0837                1.0837
 Frc consts  --     1.1377                0.2132                0.2132
 IR Inten    --     2.9866                0.0000                0.0000
 Raman Activ --     0.4224                3.8475                3.8475
 Depolar (P) --     0.7500                0.7500                0.7500
 Depolar (U) --     0.8571                0.8571                0.8571

                    4                      5                      6
                  E                     A1                     A1
 Frequencies --  1384.9600             1524.5953             1524.5953
 Red. masses --     1.0837                1.0842                1.0842
 Frc consts  --     1.2653                1.4646                1.4646
 IR Inten    --     0.0000                0.0000                0.0000
 Raman Activ --     3.8686                3.3821                3.3821
 Depolar (P) --     0.7500                0.7500                0.7500
 Depolar (U) --     0.8571                0.8571                0.8571

 Zero-point correction=                     0.037063 (Hartree/Particle)
 Thermal correction to Energy=              0.039585
 Thermal correction to Enthalpy=            0.040529
 Thermal correction to Gibbs Free Energy=   0.007202
 Sum of electronic and zero-point Energies=          -40.514808
 Sum of electronic and thermal Energies=             -40.512286
 Sum of electronic and thermal Enthalpies=           -40.511342
 Sum of electronic and thermal Free Energies=        -40.544669

 SCF Done:  E(RB3LYP) =  -40.551871 A.U. after  112 cycles

 Molecular orientation:
 ----------------------------------------------------------------------
 Center     Atomic     Atomic              Coordinates (Angstroms)
 Number     Number      Type              X           Y           Z
 ----------------------------------------------------------------------
      1          6             0       -0.000000    0.000000    0.000000
      2          1             0        0.000000    0.000000    1.089000
      3          1             0        1.026719    0.000000   -0.363000
      4          1             0       -0.513360   -0.889165   -0.363000
 ----------------------------------------------------------------------

 Normal termination of Gaussian 16 at Thu Apr 30 11:52:15 2026.